nohup: ignoring input

                                 *****************
                                 * O   R   C   A *
                                 *****************

                                            #,                                       
                                            ###                                      
                                            ####                                     
                                            #####                                    
                                            ######                                   
                                           ########,                                 
                                     ,,################,,,,,                         
                               ,,#################################,,                 
                          ,,##########################################,,             
                       ,#########################################, ''#####,          
                    ,#############################################,,   '####,        
                  ,##################################################,,,,####,       
                ,###########''''           ''''###############################       
              ,#####''   ,,,,##########,,,,          '''####'''          '####       
            ,##' ,,,,###########################,,,                        '##       
           ' ,,###''''                  '''############,,,                           
         ,,##''                                '''############,,,,        ,,,,,,###''
      ,#''                                            '''#######################'''  
     '                                                          ''''####''''         
             ,#######,   #######,   ,#######,      ##                                
            ,#'     '#,  ##    ##  ,#'     '#,    #''#        ,####,    ,#,          
            ##       ##  ##   ,#'  ##            #'  '#       #'       ,# #          
            ##       ##  #######   ##           ,######,      #####,      #          
            '#,     ,#'  ##    ##  '#,     ,#' ,#      #,     #,   #      #          
             '#######'   ##     ##  '#######'  #'      '#     '####' #    #          



                #########################################################
                #                        -***-                          #
                #          Department of theory and spectroscopy        #
                #                                                       #
                #                      Frank Neese                      #
                #                                                       #
                #     Directorship, Architecture, Infrastructure        #
                #                    SHARK, DRIVERS                     #
                #        Core code/Algorithms in most modules           #
                #                                                       #
                #        Max Planck Institute fuer Kohlenforschung      #
                #                Kaiser Wilhelm Platz 1                 #
                #                 D-45470 Muelheim/Ruhr                 #
                #                      Germany                          #
                #                                                       #
                #                  All rights reserved                  #
                #                        -***-                          #
                #########################################################


                         Program Version 6.1.0  -  RELEASE   -
                                (GIT: $679e74b$)
                          ($2025-06-10 18:02:51 +0200$)


 With contributions from (in alphabetic order):
[Max-Planck-Institut fuer Kohlenforschung]                               
  Daniel Aravena         : Magnetic Suceptibility                        
  Michael Atanasov       : Ab Initio Ligand Field Theory (pilot matlab implementation)
  Alexander A. Auer      : GIAO ZORA, VPT2 properties, NMR spectrum      
  Ute Becker             : All parallelization in ORCA, NUMFREQ, NUMCALC 
  Giovanni Bistoni       : ED, misc. LED, open-shell LED, HFLD           
  Dmytro Bykov           : pre 5.0 version of the SCF Hessian            
  Marcos Casanova-Páez   : Triplet and SCS-CIS(D). UHF-(DLPNO)-IP/EA/STEOM-CCSD. UHF-CVS-IP/STEOM-CCSD   
  Vijay G. Chilkuri      : MRCI spin determinant printing, contributions to CSF-ICE 
  Pauline Colinet        : FMM embedding                                 
  Dipayan Datta          : RHF DLPNO-CCSD density                        
  Achintya Kumar Dutta   : EOM-CC, STEOM-CC                              
  Nicolas Foglia         : Exact transition moments, OPA infrastructure, MCD improvements    
  Dmitry Ganyushin       : Spin-Orbit,Spin-Spin,Magnetic field MRCI      
  Miquel Garcia-Rates    : C-PCM and meta-GGA Hessian, CCSD/C-PCM, Gaussian charge scheme 
  Tiago L. C. Gouveia    : GS-ROHF, GS-ROCIS                             
  Yang Guo               : DLPNO-NEVPT2, F12-NEVPT2, CIM, IAO-localization        
  Andreas Hansen         : Spin unrestricted coupled pair/coupled cluster methods 
  Ingolf Harden          : AUTO-CI MPn and infrastructure                
  Benjamin Helmich-Paris : MC-RPA, TRAH-(SCF,CASSCF), AVAS, COSX integrals, SCF dyn. polar., MC-PDFT, srDFT 
  Lee Huntington         : MR-EOM, pCC                                   
  Robert Izsak           : Overlap fitted RIJCOSX, COSX-SCS-MP3, EOM     
  Riya Kayal             : Wick's Theorem for AUTO-CI, AUTO-CI UHF-CCSDT 
  Emily Kempfer          : AUTO-CI RHF CISDT and CCSDT, approximate NEVPT4
  Christian Kollmar      : KDIIS, OOCD, Brueckner-CCSD(T), CCSD density, CASPT2, CASPT2-K, improved NEVPT2 
  Axel Koslowski         : Symmetry handling                             
  Simone Kossmann        : meta-GGA functionals, TD-DFT gradient, OOMP2, (MP2 Hessian; deprecated post 5.0) 
  Lucas Lang             : DCDCAS, Hyperfine gauge corrections, ICE-SOC+SSC
  Marvin Lechner         : AUTO-CI (C++ implementation), FIC-MRCC        
  Spencer Leger          : CASSCF response                               
  Dagmar Lenk            : GEPOL surface, SMD, ORCA-2-JSON               
  Dimitrios Liakos       : Extrapolation schemes; Compound Job, Property file
  Dimitrios Manganas     : Further ROCIS development; embedding schemes. LFT, Crystal Embedding 
  Dimitrios Pantazis     : SARC Basis sets                               
  Anastasios Papadopoulos: AUTO-CI, single reference methods and gradients 
  Taras Petrenko         : pre 6.0 DFT Hessian and TD-DFT gradient,  ECA, NRVS 
  Petra Pikulova         : Analytic Raman intensities                    
  Peter Pinski           : DLPNO-MP2, DLPNO-MP2 Gradient                 
  Shashank Vittal Rao    : ES-AILFT, MagRelax                            
  Christoph Reimann      : Effective Core Potentials                     
  Marius Retegan         : Local ZFS, SOC                                
  Christoph Riplinger    : Optimizer, TS searches, QM/MM, DLPNO-CCSD(T), (RO)-DLPNO pert. Triples 
  Michael Roemelt        : Original ROCIS implementation, recursive CI coupling coefficients
  Masaaki Saitow         : Open-shell DLPNO-CCSD energy and density      
  Barbara Sandhoefer     : DKH picture change effects                    
  Yorick L. A. Schmerwitz: GMF and freeze-and-release deltaSCF, NEB S-IDPP initial path                    
  Kantharuban Sivalingam : CASSCF convergence/infrastructure, NEVPT2, NEVPT3, NEVPT4(SD), FIC-MRCI and CEPA variants
  Bernardo de Souza      : ESD, SOC TD-DFT                               
  Georgi L. Stoychev     : AutoAux, RI-MP2 NMR, DLPNO-MP2 response, X2C  
  Van Anh Tran           : RI-MP2 g-tensors                              
  Willem Van den Heuvel  : Paramagnetic NMR                              
  Zikuan Wang            : NOTCH, Electric field optimization            
  Frank Wennmohs         : Technical directorship and infrastructure     
  Hang Xu                : AUTO-CI-Response properties                   
                                                                         
[FACCTs GmbH]                                                            
  Markus Bursch, Nicolas Foglia, Miquel Garcia-Rates, Ingolf Harden, Hagen Neugebauer, Anastasios Papadopoulos, 
  Christoph Riplinger, Bernardo de Souza, Georgi L. Stoychev                                                    
                                                                 
  APM, various basis sets, CI-OPT, improved COSX, DLPNO-Multilevel,           
  DOCKER, DRACO, updates on ESD, Fragmentator, GOAT, IRC, LR-CPCM, L-BFGS, MBIS, meta-GGA TD-DFT gradient, ML-optimized integration grids, 
  MM, NACMEs, nearIR, NEB, NEB-TS, NL-DFT gradient (VV10), 2- and 3-layer-ONIOM, interface openCOSMO-RS, QMMM,   
  Crystal-QMMM, RESP, rigid body optimization, SF, symmetry and pop. for TD-DFT, various functionals, SOLVATOR                                   
                                                                         
[Other institutions]                                                     
  V. Asgeirsson          : NEB                                           
  Christoph Bannwarth    : sTDA-DFT, sTD-DFT, PBEh-3c, B97-3c, D3        
  Giovanni Bistoni       : ETS/NOCV, ADLD/ADEX, COVALED                  
  Martin Brehm           : Molecular dynamics                            
  Ronald Cardenas        : ETS/NOCV                                      
  Martina Colucci        : COVALED                                       
  Sebastian Ehlert       : rSCAN, r2SCAN, r2SCAN-3c, D4, dhf basis sets  
  Marvin Friede          : D4 for Fr, Ra, Ac-Lr                          
  Lars Goerigk           : TD-DFT with DH, B97 family of functionals     
  Stefan Grimme          : VdW corrections, initial TS optimization, DFT functionals, gCP, sTDA/sTD-DF 
  Waldemar Hujo          : DFT-NL                                        
  H. Jonsson             : NEB                                           
  Holger Kruse           : gCP                                           
  Marcel Mueller         : wB97X-3c, vDZP basis set                      
  Hagen Neugebauer       : wr2SCAN, Native XTB                           
  Gianluca Regni         : ADLD/ADEX                                     
  Tobias Risthaus        : pre 6.0 range-separated hybrid DFT and stability analysis
  Lukas Wittmann         : regularized MP2, r2SCAN double-hybrids, wr2SCAN        
                                                                         
We gratefully acknowledge several colleagues who have allowed us to      
interface, adapt or use parts of their codes:                            
  Ed Valeev, F. Pavosevic, A. Kumar             : LibInt (2-el integral package), F12 methods 
  Garnet Chan, S. Sharma, J. Yang, R. Olivares  : DMRG                   
  Ulf Ekstrom                                   : XCFun DFT Library      
  Mihaly Kallay                                 : mrcc  (arbitrary order and MRCC methods)
  Frank Weinhold                                : gennbo (NPA and NBO analysis)           
  Simon Mueller                                 : openCOSMO-RS                            
  Christopher J. Cramer and Donald G. Truhlar   : smd solvation model                     
  S Lehtola, MJT Oliveira, MAL Marques          : LibXC Library                           
  Liviu Ungur et al                             : ANISO software                          


 Your calculation uses the libint2 library for the computation of 2-el integrals
 For citations please refer to: http://libint.valeyev.net

 Your ORCA version has been built with support for libXC version: 7.0.0
 For citations please refer to: https://libxc.gitlab.io

 This ORCA versions uses:
   CBLAS   interface :  Fast vector & matrix operations
   LAPACKE interface :  Fast linear algebra routines
   SCALAPACK package :  Parallel linear algebra routines
   Shared memory     :  Shared parallel matrices
   BLAS/LAPACK       :  OpenBLAS 0.3.29  USE64BITINT DYNAMIC_ARCH NO_AFFINITY SkylakeX SINGLE_THREADED
        Core in use  :  SkylakeX
   Copyright (c) 2011-2014, The OpenBLAS Project


  ***********************************
  * Starting time: Wed Sep 17 17:29:35 2025
  * Host name:     computational-ch-1-genericvnf-vm-0
  * Process ID:    268935
  * Working dir.:  /home/ubuntu/APP/sp
  ***********************************

Your calculation utilizes the atom-pairwise dispersion correction
with the Becke-Johnson damping scheme (D3BJ)


Warning: RI is on but no J-basis has been assigned. Assigning Def2/J (nothing to worry about!)
================================================================================

----- Orbital basis set information -----
Your calculation utilizes the basis: def2-TZVP
   F. Weigend and R. Ahlrichs, Phys. Chem. Chem. Phys. 7, 3297 (2005).

----- AuxJ basis set information -----
Your calculation utilizes the auxiliary basis: def2/J
   H-Rn: F. Weigend, Phys. Chem. Chem. Phys. 8, 1057 (2006).
   Fr-Lr: K. Eichkorn, F. Weigend, O. Treutler, R. Ahlrichs; Theor. Chem. Acc. 97, 119 (1997).

================================================================================
                                        WARNINGS
                       Please study these warnings very carefully!
================================================================================


================================================================================
                                       INPUT FILE
================================================================================
NAME = APP_sp.inp
|  1> ! B3LYP D3BJ def2-TZVP TightSCF SP
|  2> 
|  3> %pal
|  4>   nprocs 24
|  5> end
|  6> 
|  7> * xyz 0 1
|  8> P      6.0172026265   -2.2918561968    4.2265636908
|  9> O      6.5967632489   -3.6852873547    4.3329836526
| 10> O      4.6260022878   -2.3045105926    5.0162693351
| 11> P      4.8666013290   -1.4625671713    1.3927966673
| 12> O      4.9000179353   -0.0435481672    1.8550190748
| 13> O      3.5835936179   -1.9127945990    0.6442671782
| 14> P      6.4221580997   -2.2106899075   -1.1018180135
| 15> O      5.6605014417   -1.6912786622   -2.2447545083
| 16> O      6.3443901424   -3.7489256091   -0.8407040543
| 17> P      9.2440160506   -2.4694844903   -0.4250847057
| 18> O      9.7659486637   -3.6382655302   -1.1581369841
| 19> O      8.9015236702   -2.5181069191    1.0310584912
| 20> P     10.9392662065   -0.1979216811    0.3661783911
| 21> O     11.9878434102   -0.8857518080    1.1709090940
| 22> O      9.9971329788    0.7559739363    0.9912720684
| 23> P     13.0511745771    1.4274536333   -1.0617762335
| 24> O     13.1117167654    2.2842179901   -2.2310058748
| 25> O     14.0949850116    1.1854676747   -0.0560621755
| 26> O      5.2337296389   -2.5335950997    2.4140291559
| 27> O      6.0799511205   -1.5423550803    0.2830237264
| 28> O      7.9721676879   -1.8483673302   -1.2489725500
| 29> O     10.2721214637   -1.2149559591   -0.6485064156
| 30> O     11.7178679445    0.6932139417   -0.8514118488
| 31> N      3.5602225522    0.2132053127    4.5376673806
| 32> H      3.8446162276    0.2785205702    3.5567842475
| 33> H      4.1713614319   -1.4084722283    4.9584727899
| 34> H      2.5515258014    0.3044384271    4.5829988074
| 35> H      3.9592093568    1.0030379949    5.0339723439
| 36> N      3.1142986033   -0.4929248675   -1.4750601825
| 37> H      2.4651362182   -0.9354011438   -2.1148132443
| 38> H      3.3210260649   -1.3004003384   -0.1749920040
| 39> H      2.8506369431    0.4805665727   -1.3767722158
| 40> H      4.0394224548   -0.5678016764   -1.9069986085
| 41> N      7.7069723207   -4.8404065346   -2.7289091236
| 42> H      8.6255146552   -4.5079990983   -2.4014601258
| 43> H      6.8379712456   -4.2997760173   -1.6104156458
| 44> H      7.7570458937   -5.8365156783   -2.9047372229
| 45> H      7.4814525481   -4.3743620148   -3.5999613326
| 46> N      7.2670463049   -4.5318987723    2.0041149686
| 47> H      6.9824390763   -4.2551206591    3.0308634295
| 48> H      8.0110550290   -3.8980457640    1.6567750061
| 49> H      6.4584315241   -4.3903088373    1.3982910260
| 50> H      7.5815222453   -5.4954480762    1.9385564665
| 51> N      7.7460147581   -0.2180956014    2.2314803784
| 52> H      7.8883803708   -0.1586931461    3.2384676038
| 53> H      8.5391401437    0.2112969265    1.6981656357
| 54> H      6.8038109434    0.1438320323    2.0031655373
| 55> H      7.7900505950   -1.2072081454    1.9547330543
| 56> N     14.4345572852   -0.8619425771    1.6267815578
| 57> H     14.8829759395   -1.7173787596    1.3122532237
| 58> H     14.6065195492   -0.0834751836    0.9632919244
| 59> H     14.7494317307   -0.6250427371    2.5605109562
| 60> H     13.3361362688   -0.9536449972    1.5506362068
| 61> **                         ****END OF INPUT****
================================================================================

                       ****************************
                       * Single Point Calculation *
                       ****************************

---------------------------------
CARTESIAN COORDINATES (ANGSTROEM)
---------------------------------
  P      6.017203   -2.291856    4.226564
  O      6.596763   -3.685287    4.332984
  O      4.626002   -2.304511    5.016269
  P      4.866601   -1.462567    1.392797
  O      4.900018   -0.043548    1.855019
  O      3.583594   -1.912795    0.644267
  P      6.422158   -2.210690   -1.101818
  O      5.660501   -1.691279   -2.244755
  O      6.344390   -3.748926   -0.840704
  P      9.244016   -2.469484   -0.425085
  O      9.765949   -3.638266   -1.158137
  O      8.901524   -2.518107    1.031058
  P     10.939266   -0.197922    0.366178
  O     11.987843   -0.885752    1.170909
  O      9.997133    0.755974    0.991272
  P     13.051175    1.427454   -1.061776
  O     13.111717    2.284218   -2.231006
  O     14.094985    1.185468   -0.056062
  O      5.233730   -2.533595    2.414029
  O      6.079951   -1.542355    0.283024
  O      7.972168   -1.848367   -1.248973
  O     10.272121   -1.214956   -0.648506
  O     11.717868    0.693214   -0.851412
  N      3.560223    0.213205    4.537667
  H      3.844616    0.278521    3.556784
  H      4.171361   -1.408472    4.958473
  H      2.551526    0.304438    4.582999
  H      3.959209    1.003038    5.033972
  N      3.114299   -0.492925   -1.475060
  H      2.465136   -0.935401   -2.114813
  H      3.321026   -1.300400   -0.174992
  H      2.850637    0.480567   -1.376772
  H      4.039422   -0.567802   -1.906999
  N      7.706972   -4.840407   -2.728909
  H      8.625515   -4.507999   -2.401460
  H      6.837971   -4.299776   -1.610416
  H      7.757046   -5.836516   -2.904737
  H      7.481453   -4.374362   -3.599961
  N      7.267046   -4.531899    2.004115
  H      6.982439   -4.255121    3.030863
  H      8.011055   -3.898046    1.656775
  H      6.458432   -4.390309    1.398291
  H      7.581522   -5.495448    1.938556
  N      7.746015   -0.218096    2.231480
  H      7.888380   -0.158693    3.238468
  H      8.539140    0.211297    1.698166
  H      6.803811    0.143832    2.003166
  H      7.790051   -1.207208    1.954733
  N     14.434557   -0.861943    1.626782
  H     14.882976   -1.717379    1.312253
  H     14.606520   -0.083475    0.963292
  H     14.749432   -0.625043    2.560511
  H     13.336136   -0.953645    1.550636

----------------------------
CARTESIAN COORDINATES (A.U.)
----------------------------
  NO LB      ZA    FRAG     MASS         X           Y           Z
   0 P    15.0000    0    30.974   11.370865   -4.330981    7.987048
   1 O     8.0000    0    15.999   12.466076   -6.964184    8.188152
   2 O     8.0000    0    15.999    8.741877   -4.354894    9.479375
   3 P    15.0000    0    30.974    9.196544   -2.763851    2.632004
   4 O     8.0000    0    15.999    9.259692   -0.082294    3.505478
   5 O     8.0000    0    15.999    6.772011   -3.614658    1.217489
   6 P    15.0000    0    30.974   12.136120   -4.177598   -2.082134
   7 O     8.0000    0    15.999   10.696798   -3.196053   -4.241971
   8 O     8.0000    0    15.999   11.989160   -7.084443   -1.588700
   9 P    15.0000    0    30.974   17.468659   -4.666649   -0.803294
  10 O     8.0000    0    15.999   18.454968   -6.875325   -2.188562
  11 O     8.0000    0    15.999   16.821442   -4.758532    1.948418
  12 P    15.0000    0    30.974   20.672217   -0.374018    0.691977
  13 O     8.0000    0    15.999   22.653741   -1.673828    2.212698
  14 O     8.0000    0    15.999   18.891843    1.428584    1.873233
  15 P    15.0000    0    30.974   24.663146    2.697496   -2.006466
  16 O     8.0000    0    15.999   24.777554    4.316546   -4.215990
  17 O     8.0000    0    15.999   26.635662    2.240209   -0.105942
  18 O     8.0000    0    15.999    9.890316   -4.787801    4.561854
  19 O     8.0000    0    15.999   11.489443   -2.914629    0.534837
  20 O     8.0000    0    15.999   15.065214   -3.492908   -2.360216
  21 O     8.0000    0    15.999   19.411496   -2.295934   -1.225500
  22 O     8.0000    0    15.999   22.143561    1.309985   -1.608935
  23 N     7.0000    0    14.007    6.727846    0.402900    8.574949
  24 H     1.0000    0     1.008    7.265272    0.526328    6.721348
  25 H     1.0000    0     1.008    7.882731   -2.661627    9.370156
  26 H     1.0000    0     1.008    4.821685    0.575305    8.660613
  27 H     1.0000    0     1.008    7.481821    1.895467    9.512829
  28 N     7.0000    0    14.007    5.885171   -0.931493   -2.787460
  29 H     1.0000    0     1.008    4.658432   -1.767652   -3.996418
  30 H     1.0000    0     1.008    6.275830   -2.457401   -0.330687
  31 H     1.0000    0     1.008    5.386923    0.908139   -2.601722
  32 H     1.0000    0     1.008    7.633402   -1.072990   -3.603705
  33 N     7.0000    0    14.007   14.564067   -9.147043   -5.156891
  34 H     1.0000    0     1.008   16.299860   -8.518884   -4.538102
  35 H     1.0000    0     1.008   12.921893   -8.125399   -3.043245
  36 H     1.0000    0     1.008   14.658692  -11.029416   -5.489158
  37 H     1.0000    0     1.008   14.137896   -8.266346   -6.802941
  38 N     7.0000    0    14.007   13.732727   -8.564048    3.787228
  39 H     1.0000    0     1.008   13.194898   -8.041013    5.727502
  40 H     1.0000    0     1.008   15.138700   -7.366239    3.130851
  41 H     1.0000    0     1.008   12.204667   -8.296481    2.642387
  42 H     1.0000    0     1.008   14.327001  -10.384892    3.663341
  43 N     7.0000    0    14.007   14.637847   -0.412141    4.216887
  44 H     1.0000    0     1.008   14.906879   -0.299887    6.119817
  45 H     1.0000    0     1.008   16.136636    0.399293    3.209068
  46 H     1.0000    0     1.008   12.857339    0.271803    3.785434
  47 H     1.0000    0     1.008   14.721062   -2.281293    3.693910
  48 N     7.0000    0    14.007   27.277360   -1.628835    3.074172
  49 H     1.0000    0     1.008   28.124749   -3.245376    2.479799
  50 H     1.0000    0     1.008   27.602322   -0.157745    1.820358
  51 H     1.0000    0     1.008   27.872387   -1.181160    4.838664
  52 H     1.0000    0     1.008   25.201645   -1.802128    2.930278

--------------------------------
INTERNAL COORDINATES (ANGSTROEM)
--------------------------------
 P      0   0   0     0.000000000000     0.00000000     0.00000000
 O      1   0   0     1.512899902542     0.00000000     0.00000000
 O      1   2   0     1.599760457310   106.92552281     0.00000000
 P      1   2   3     3.168886109834   116.29726091   252.58266413
 O      4   1   2     1.492776325364    87.92227547   195.99542856
 O      4   1   2     1.552130767509   130.95643673    72.19895483
 P      4   1   2     3.033569992757   118.98928790   317.74737874
 O      7   4   1     1.468404827548   106.66982320   180.48204801
 O      7   4   1     1.562177143780    94.58031813    60.61830897
 P      7   4   1     2.913387186941   109.12086793   333.77837767
 O     10   7   4     1.475068952529   107.31759923   139.70834286
 O     10   7   4     1.496669028574    90.41442891    15.19591271
 P     10   7   4     2.942782352736   123.49478276   292.13214516
 O     13  10   7     1.490038905459   101.20285811   154.90951848
 O     13  10   7     1.479281573275   104.15143967    28.45727294
 P     13  10   7     3.023417981092   133.65998490   256.76573694
 O     16  13  10     1.450795807046   136.65726194    61.24209479
 O     16  13  10     1.469543532458    94.84161412   235.54680491
 O      4   1   2     1.524729423575    29.51799195    24.85370388
 O      7   4   1     1.575297972585    20.12636910   297.97285101
 O      7   4   1     1.598581193167   121.13145413   308.00224328
 O     13  10   7     1.583990557870    24.42642552   269.54234190
 O     16  13  10     1.536576609091    21.92755909    44.86876123
 N      3   1   2     2.775579156765   103.98273550   185.31418149
 H     24   3   1     1.023365802766    96.68784335    39.51887736
 H      3   1   2     1.006441006114   110.94359284   181.82678019
 H     24   3   1     1.013828168130   117.12668633   154.02903086
 H     24   3   1     1.014566287983   118.08699232   284.92089717
 N      6   4   1     2.593803448022   112.63208033   170.44170482
 H     29   6   4     1.013154004779   113.12855800   162.53703843
 H      6   4   1     1.056008550118   114.29620494   165.40335255
 H     29   6   4     1.013342774978   119.58443330   291.97416581
 H     29   6   4     1.023734087046    98.11751028    50.87139959
 N      9   7   4     2.571629675338   105.59423023   183.11220576
 H     34   9   7     1.030260923328    95.85953201    69.44582077
 H      9   7   4     1.067480403445   111.38171147   179.84143207
 H     34   9   7     1.012746912797   124.82923072   187.71577825
 H     34   9   7     1.013305784585   108.54428572   317.28763768
 N      2   1   3     2.567033232135   109.87499793   129.58657932
 H     39   2   1     1.100826871256     4.72557594   197.70291870
 H     39   2   1     1.037286685163   106.83055226    62.90181615
 H     39   2   1     1.020258899912   106.61787822   309.27138276
 H     39   2   1     1.015687105035   116.88971779   186.06331836
 N     15  13  10     2.748538040493   118.93187056    28.98727678
 H     44  15  13     1.018734455829   108.11348834   105.04241129
 H     44  15  13     1.047783582177     5.80621029   236.88437155
 H     44  15  13     1.034827187088   121.48083607   231.99696333
 H     44  15  13     1.028042733074   100.62753267   351.47148925
 N     14  13  10     2.488934585087   141.84024035   140.87287545
 H     49  14  13     1.015764945647   111.66625770   245.08555293
 H     49  14  13     1.037208270605    93.03784877   359.28191931
 H     49  14  13     1.013468322178   118.45083734   115.48312700
 H     49  14  13     1.104869303402     7.81328289   163.33489754

---------------------------
INTERNAL COORDINATES (A.U.)
---------------------------
 P      0   0   0     0.000000000000     0.00000000     0.00000000
 O      1   0   0     2.858966483841     0.00000000     0.00000000
 O      1   2   0     3.023109144192   106.92552281     0.00000000
 P      1   2   3     5.988326897174   116.29726091   252.58266413
 O      4   1   2     2.820938434140    87.92227547   195.99542856
 O      4   1   2     2.933102074625   130.95643673    72.19895483
 P      4   1   2     5.732616494391   118.98928790   317.74737874
 O      7   4   1     2.774882977793   106.66982320   180.48204801
 O      7   4   1     2.952086974415    94.58031813    60.61830897
 P      7   4   1     5.505503905393   109.12086793   333.77837767
 O     10   7   4     2.787476348930   107.31759923   139.70834286
 O     10   7   4     2.828294577127    90.41442891    15.19591271
 P     10   7   4     5.561052718408   123.49478276   292.13214516
 O     13  10   7     2.815765460205   101.20285811   154.90951848
 O     13  10   7     2.795437048446   104.15143967    28.45727294
 P     13  10   7     5.713431972636   133.65998490   256.76573694
 O     16  13  10     2.741606751558   136.65726194    61.24209479
 O     16  13  10     2.777034818221    94.84161412   235.54680491
 O      4   1   2     2.881321038888    29.51799195    24.85370388
 O      7   4   1     2.976881747507    20.12636910   297.97285101
 O      7   4   1     3.020880657922   121.13145413   308.00224328
 O     13  10   7     2.993308353091    24.42642552   269.54234190
 O     16  13  10     2.903708974972    21.92755909    44.86876123
 N      3   1   2     5.245084469306   103.98273550   185.31418149
 H     24   3   1     1.933881102047    96.68784335    39.51887736
 H      3   1   2     1.901897871504   110.94359284   181.82678019
 H     24   3   1     1.915857584620   117.12668633   154.02903086
 H     24   3   1     1.917252428998   118.08699232   284.92089717
 N      6   4   1     4.901578161982   112.63208033   170.44170482
 H     29   6   4     1.914583600518   113.12855800   162.53703843
 H      6   4   1     1.995566954803   114.29620494   165.40335255
 H     29   6   4     1.914940324496   119.58443330   291.97416581
 H     29   6   4     1.934577058477    98.11751028    50.87139959
 N      9   7   4     4.859675804254   105.59423023   183.11220576
 H     34   9   7     1.946910991571    95.85953201    69.44582077
 H      9   7   4     2.017245615839   111.38171147   179.84143207
 H     34   9   7     1.913814308160   124.82923072   187.71577825
 H     34   9   7     1.914870422783   108.54428572   317.28763768
 N      2   1   3     4.850989785411   109.87499793   129.58657932
 H     39   2   1     2.080261307535     4.72557594   197.70291870
 H     39   2   1     1.960187757322   106.83055226    62.90181615
 H     39   2   1     1.928009906529   106.61787822   309.27138276
 H     39   2   1     1.919370466271   116.88971779   186.06331836
 N     15  13  10     5.193984165196   118.93187056    28.98727678
 H     44  15  13     1.925129124707   108.11348834   105.04241129
 H     44  15  13     1.980024017934     5.80621029   236.88437155
 H     44  15  13     1.955539979533   121.48083607   231.99696333
 H     44  15  13     1.942719219478   100.62753267   351.47148925
 N     14  13  10     4.703404731060   141.84024035   140.87287545
 H     49  14  13     1.919517563711   111.66625770   245.08555293
 H     49  14  13     1.960039575282    93.03784877   359.28191931
 H     49  14  13     1.915177574320   118.45083734   115.48312700
 H     49  14  13     2.087900397206     7.81328289   163.33489754

---------------------
BASIS SET INFORMATION
---------------------
There are 4 groups of distinct atoms

 Group   1 Type P   : 14s9p3d1f contracted to 5s5p2d1f pattern {73211/51111/21/1}
 Group   2 Type O   : 11s6p2d1f contracted to 5s3p2d1f pattern {62111/411/11/1}
 Group   3 Type N   : 11s6p2d1f contracted to 5s3p2d1f pattern {62111/411/11/1}
 Group   4 Type H   : 5s1p contracted to 3s1p pattern {311/1}

Atom   0P    basis set group =>   1
Atom   1O    basis set group =>   2
Atom   2O    basis set group =>   2
Atom   3P    basis set group =>   1
Atom   4O    basis set group =>   2
Atom   5O    basis set group =>   2
Atom   6P    basis set group =>   1
Atom   7O    basis set group =>   2
Atom   8O    basis set group =>   2
Atom   9P    basis set group =>   1
Atom  10O    basis set group =>   2
Atom  11O    basis set group =>   2
Atom  12P    basis set group =>   1
Atom  13O    basis set group =>   2
Atom  14O    basis set group =>   2
Atom  15P    basis set group =>   1
Atom  16O    basis set group =>   2
Atom  17O    basis set group =>   2
Atom  18O    basis set group =>   2
Atom  19O    basis set group =>   2
Atom  20O    basis set group =>   2
Atom  21O    basis set group =>   2
Atom  22O    basis set group =>   2
Atom  23N    basis set group =>   3
Atom  24H    basis set group =>   4
Atom  25H    basis set group =>   4
Atom  26H    basis set group =>   4
Atom  27H    basis set group =>   4
Atom  28N    basis set group =>   3
Atom  29H    basis set group =>   4
Atom  30H    basis set group =>   4
Atom  31H    basis set group =>   4
Atom  32H    basis set group =>   4
Atom  33N    basis set group =>   3
Atom  34H    basis set group =>   4
Atom  35H    basis set group =>   4
Atom  36H    basis set group =>   4
Atom  37H    basis set group =>   4
Atom  38N    basis set group =>   3
Atom  39H    basis set group =>   4
Atom  40H    basis set group =>   4
Atom  41H    basis set group =>   4
Atom  42H    basis set group =>   4
Atom  43N    basis set group =>   3
Atom  44H    basis set group =>   4
Atom  45H    basis set group =>   4
Atom  46H    basis set group =>   4
Atom  47H    basis set group =>   4
Atom  48N    basis set group =>   3
Atom  49H    basis set group =>   4
Atom  50H    basis set group =>   4
Atom  51H    basis set group =>   4
Atom  52H    basis set group =>   4
---------------------------------
AUXILIARY/J BASIS SET INFORMATION
---------------------------------
There are 4 groups of distinct atoms

 Group   1 Type P   : 14s5p5d2f1g contracted to 8s4p3d1f1g pattern {71111111/2111/311/2/1}
 Group   2 Type O   : 12s5p4d2f1g contracted to 6s4p3d1f1g pattern {711111/2111/211/2/1}
 Group   3 Type N   : 12s5p4d2f1g contracted to 6s4p3d1f1g pattern {711111/2111/211/2/1}
 Group   4 Type H   : 5s2p1d contracted to 3s1p1d pattern {311/2/1}

Atom   0P    basis set group =>   1
Atom   1O    basis set group =>   2
Atom   2O    basis set group =>   2
Atom   3P    basis set group =>   1
Atom   4O    basis set group =>   2
Atom   5O    basis set group =>   2
Atom   6P    basis set group =>   1
Atom   7O    basis set group =>   2
Atom   8O    basis set group =>   2
Atom   9P    basis set group =>   1
Atom  10O    basis set group =>   2
Atom  11O    basis set group =>   2
Atom  12P    basis set group =>   1
Atom  13O    basis set group =>   2
Atom  14O    basis set group =>   2
Atom  15P    basis set group =>   1
Atom  16O    basis set group =>   2
Atom  17O    basis set group =>   2
Atom  18O    basis set group =>   2
Atom  19O    basis set group =>   2
Atom  20O    basis set group =>   2
Atom  21O    basis set group =>   2
Atom  22O    basis set group =>   2
Atom  23N    basis set group =>   3
Atom  24H    basis set group =>   4
Atom  25H    basis set group =>   4
Atom  26H    basis set group =>   4
Atom  27H    basis set group =>   4
Atom  28N    basis set group =>   3
Atom  29H    basis set group =>   4
Atom  30H    basis set group =>   4
Atom  31H    basis set group =>   4
Atom  32H    basis set group =>   4
Atom  33N    basis set group =>   3
Atom  34H    basis set group =>   4
Atom  35H    basis set group =>   4
Atom  36H    basis set group =>   4
Atom  37H    basis set group =>   4
Atom  38N    basis set group =>   3
Atom  39H    basis set group =>   4
Atom  40H    basis set group =>   4
Atom  41H    basis set group =>   4
Atom  42H    basis set group =>   4
Atom  43N    basis set group =>   3
Atom  44H    basis set group =>   4
Atom  45H    basis set group =>   4
Atom  46H    basis set group =>   4
Atom  47H    basis set group =>   4
Atom  48N    basis set group =>   3
Atom  49H    basis set group =>   4
Atom  50H    basis set group =>   4
Atom  51H    basis set group =>   4
Atom  52H    basis set group =>   4


           ************************************************************
           *        Program running with 24 parallel MPI-processes    *
           *              working on a common directory               *
           ************************************************************
------------------------------------------------------------------------------
                             ORCA STARTUP CALCULATIONS
                           -- RI-GTO INTEGRALS CHOSEN --
------------------------------------------------------------------------------
------------------------------------------------------------------------------
                   ___                                                        
                  /   \      - P O W E R E D   B Y -                         
                 /     \                                                     
                 |  |  |   _    _      __       _____    __    __             
                 |  |  |  | |  | |    /  \     |  _  \  |  |  /  |          
                  \  \/   | |  | |   /    \    | | | |  |  | /  /          
                 / \  \   | |__| |  /  /\  \   | |_| |  |  |/  /          
                |  |  |   |  __  | /  /__\  \  |    /   |      \           
                |  |  |   | |  | | |   __   |  |    \   |  |\   \          
                \     /   | |  | | |  |  |  |  | |\  \  |  | \   \       
                 \___/    |_|  |_| |__|  |__|  |_| \__\ |__|  \__/        
                                                                              
                      - O R C A' S   B I G   F R I E N D -                    
                                      &                                       
                       - I N T E G R A L  F E E D E R -                       
                                                                              
 v1 FN, 2020, v2 2021, v3 2022-2024                                           
------------------------------------------------------------------------------


----------------------
SHARK INTEGRAL PACKAGE
----------------------

Number of atoms                             ...     53
Number of basis functions                   ...   1079
Number of shells                            ...    427
Maximum angular momentum                    ...      3
Integral batch strategy                     ... SHARK/LIBINT Hybrid
RI-J (if used) integral strategy            ... SPLIT-RIJ (Revised 2003 algorithm where possible)
Printlevel                                  ...      1
Contraction scheme used                     ... SEGMENTED contraction
Prescreening option                         ... SCHWARTZ
   Thresh                                   ... 2.500e-11
   Tcut                                     ... 2.500e-12
   Tpresel                                  ... 2.500e-12 
Coulomb Range Separation                    ... NOT USED
Exchange Range Separation                   ... NOT USED
Multipole approximations                    ... NOT USED
Finite Nucleus Model                        ... NOT USED
CABS basis                                  ... NOT available
Auxiliary Coulomb fitting basis             ... AVAILABLE
   # of basis functions in Aux-J            ...   1697
   # of shells in Aux-J                     ...    567
   Maximum angular momentum in Aux-J        ...      4
Auxiliary J/K fitting basis                 ... NOT available
Auxiliary Correlation fitting basis         ... NOT available
Auxiliary 'external' fitting basis          ... NOT available

Checking pre-screening integrals            ... done (  1.7 sec) Dimension = 427
   => SHARK Basis and OBASIS are compatible. Storing Pre-screening
Shell pair information
Shell pair cut-off parameter TPreSel        ...   2.5e-12
Total number of shell pairs                 ...     91378
Shell pairs after pre-screening             ...     47383
Total number of primitive shell pairs       ...    294555
Primitive shell pairs kept                  ...     93831
          la=0 lb=0:  12091 shell pairs
          la=1 lb=0:  14427 shell pairs
          la=1 lb=1:   4449 shell pairs
          la=2 lb=0:   6107 shell pairs
          la=2 lb=1:   3788 shell pairs
          la=2 lb=2:    834 shell pairs
          la=3 lb=0:   2946 shell pairs
          la=3 lb=1:   1817 shell pairs
          la=3 lb=2:    745 shell pairs
          la=3 lb=3:    179 shell pairs

Checking whether 4 symmetric matrices of dimension 1079 fit in memory
:Max Core in MB      =   4096.00
 MB in use           =     60.36
 MB left             =   4035.64
 MB needed           =     17.78
 Data fit in memory  = YES
Calculating RI/J V-Matrix + Cholesky decomp.... done ( 12.5 sec)
Calculating Nuclear repulsion               ... done (  0.0 sec) ENN=   5118.130764399221 Eh

Diagonalization of the overlap matrix:
Smallest eigenvalue                        ... 4.462e-04
Time for diagonalization                   ...  390.384 sec
Threshold for overlap eigenvalues          ... 1.000e-07
Number of eigenvalues below threshold      ... 0
Time for construction of square roots      ...   18.875 sec
Total time needed                          ...  410.631 sec

-------------------
DFT GRID GENERATION
-------------------

General Integration Accuracy     IntAcc      ... 4.388
Radial Grid Type                 RadialGrid  ... OptM3 with GC (2021)
Angular Grid (max. ang.)         AngularGrid ... 4 (Lebedev-302)
Angular grid pruning method      GridPruning ... 4 (adaptive)
Weight generation scheme         WeightScheme... mBecke (2022)
Basis function cutoff            BFCut       ... 1.0000e-11
Integration weight cutoff        WCut        ... 1.0000e-14
Partially contracted basis set               ... off
Rotationally invariant grid construction     ... off
Angular grids for H and He will be reduced by one unit

Total number of grid points                  ...   258685
Total number of batches                      ...     4067
Average number of points per batch           ...       63
Average number of grid points per atom       ...     4881

--------------------
COSX GRID GENERATION
--------------------

GRIDX 1
-------
General Integration Accuracy     IntAcc      ... 3.816
Radial Grid Type                 RadialGrid  ... OptM3 with GC (2021)
Angular Grid (max. ang.)         AngularGrid ... 1 (Lebedev-50)
Angular grid pruning method      GridPruning ... 4 (adaptive)
Weight generation scheme         WeightScheme... mBecke (2022)
Basis function cutoff            BFCut       ... 1.0000e-11
Integration weight cutoff        WCut        ... 1.0000e-14
Partially contracted basis set               ... on
Rotationally invariant grid construction     ... off
Angular grids for H and He will be reduced by one unit

Total number of grid points                  ...    38792
Total number of batches                      ...      331
Average number of points per batch           ...      117
Average number of grid points per atom       ...      732
UseSFitting                                  ... on

GRIDX 2
-------
General Integration Accuracy     IntAcc      ... 4.020
Radial Grid Type                 RadialGrid  ... OptM3 with GC (2021)
Angular Grid (max. ang.)         AngularGrid ... 2 (Lebedev-110)
Angular grid pruning method      GridPruning ... 4 (adaptive)
Weight generation scheme         WeightScheme... mBecke (2022)
Basis function cutoff            BFCut       ... 1.0000e-11
Integration weight cutoff        WCut        ... 1.0000e-14
Partially contracted basis set               ... on
Rotationally invariant grid construction     ... off
Angular grids for H and He will be reduced by one unit

Total number of grid points                  ...    70391
Total number of batches                      ...      578
Average number of points per batch           ...      121
Average number of grid points per atom       ...     1328
UseSFitting                                  ... on

GRIDX 3
-------
General Integration Accuracy     IntAcc      ... 4.338
Radial Grid Type                 RadialGrid  ... OptM3 with GC (2021)
Angular Grid (max. ang.)         AngularGrid ... 3 (Lebedev-194)
Angular grid pruning method      GridPruning ... 4 (adaptive)
Weight generation scheme         WeightScheme... mBecke (2022)
Basis function cutoff            BFCut       ... 1.0000e-11
Integration weight cutoff        WCut        ... 1.0000e-14
Partially contracted basis set               ... on
Rotationally invariant grid construction     ... off
Angular grids for H and He will be reduced by one unit

Total number of grid points                  ...   156533
Total number of batches                      ...     1247
Average number of points per batch           ...      125
Average number of grid points per atom       ...     2953
UseSFitting                                  ... on
Grids setup in 1642.7 sec
Initializing property integral containers    ... done (  1.3 sec)

SHARK setup successfully completed in 2082.4 seconds

Maximum memory used throughout the entire STARTUP-calculation: 107.1 MB


           ************************************************************
           *        Program running with 24 parallel MPI-processes    *
           *              working on a common directory               *
           ************************************************************
-------------------------------------------------------------------------------
                                 ORCA GUESS
                   Start orbitals & Density for SCF / CASSCF
-------------------------------------------------------------------------------

------------
SCF SETTINGS
------------
Hamiltonian:
 Density Functional     Method          .... DFT(GTOs)
 Exchange Functional    Exchange        .... B88
   X-Alpha parameter    XAlpha          ....  0.666667
   Becke's b parameter  XBeta           ....  0.004200
 Correlation Functional Correlation     .... LYP
 LDA part of GGA corr.  LDAOpt          .... VWN-5
 Gradients option       PostSCFGGA      .... off
 Hybrid DFT is turned on
   Fraction HF Exchange ScalHFX         ....  0.200000
   Scaling of DF-GGA-X  ScalDFX         ....  0.720000
   Scaling of DF-GGA-C  ScalDFC         ....  0.810000
   Scaling of DF-LDA-C  ScalLDAC        ....  1.000000
   Perturbative correction              ....  0.000000
   NL short-range parameter             ....  4.800000
 RI-approximation to the Coulomb term is turned on
   Number of AuxJ basis functions       .... 1697
   RIJ-COSX (HFX calculated with COS-X)).... on


General Settings:
 Integral files         IntName         .... APP_sp
 Hartree-Fock type      HFTyp           .... RHF
 Total Charge           Charge          ....    0
 Multiplicity           Mult            ....    1
 Number of Electrons    NEL             ....  292
 Basis Dimension        Dim             .... 1079
 Nuclear Repulsion      ENuc            ....   5118.1307643992 Eh

Convergence Acceleration:
 AO-DIIS                CNVDIIS         .... on
   Start iteration      DIISMaxIt       ....    12
   Startup error        DIISStart       ....  0.200000
   # of expansion vecs  DIISMaxEq       ....     5
   Bias factor          DIISBfac        ....   1.050
   Max. coefficient     DIISMaxC        ....  10.000
 MO-DIIS                CNVKDIIS        .... off
 Trust-Rad. Augm. Hess. CNVTRAH         .... auto
   Auto Start mean grad. ratio tolernc. ....  1.125000
   Auto Start start iteration           ....    50
   Auto Start num. interpolation iter.  ....    10
   Max. Number of Micro iterations      ....    24
   Max. Number of Macro iterations      .... Maxiter - #DIIS iter
   Number of Davidson start vectors     ....     2
   Converg. threshold    (grad. norm)   ....   1.000e-05
   Grad. Scal. Fac. for Micro threshold ....   0.100
   Minimum threshold for Micro iter.    ....   1.000e-02
   NR start threshold (gradient norm)   ....   1.000e-04
   Initial trust radius                 ....   0.400
   Minimum AH scaling param. (alpha)    ....   1.000
   Maximum AH scaling param. (alpha)    .... 1000.000
   Quad. conv. algorithm                .... NR
   White noise on init. David. guess    .... on
   Maximum white noise                  ....   0.010
   Pseudo random numbers                .... off
   Inactive MOs                         .... canonical
   Orbital update algorithm             .... Taylor
   Preconditioner                       .... Diag
   Full preconditioner red. dimension   ....   250
 SOSCF                 CNVSOSCF           .... on
   Start iteration     SOSCFMaxIt         ....   150
   Startup grad/error  SOSCFStart         ....  0.003300
   Hessian update      SOSCFHessUp        .... L-BFGS
   Autom. constraints  SOSCFAutoConstrain .... off
 Level Shifting         CNVShift        .... on
   Level shift para.    LevelShift      ....    0.2500
   Turn off err/grad.   ShiftErr        ....    0.0010
 Zerner damping         CNVZerner       .... off
 Static damping         CNVDamp         .... on
   Fraction old density DampFac         ....    0.7000
   Max. Damping (<1)    DampMax         ....    0.9800
   Min. Damping (>=0)   DampMin         ....    0.0000
   Turn off err/grad.   DampErr         ....    0.1000

SCF Procedure:
 Maximum # iterations   MaxIter         ....   125
 SCF integral mode      SCFMode         .... Direct
   Integral package                     .... SHARK and LIBINT hybrid scheme
 Reset frequency        DirectResetFreq ....    20
 Integral Threshold     Thresh          ....  2.500e-11 Eh
 Primitive CutOff       TCut            ....  2.500e-12 Eh

Convergence Tolerance:
 Convergence Check Mode ConvCheckMode   .... Total+1el-Energy
 Convergence forced     ConvForced      .... 0
 Energy Change          TolE            ....  1.000e-08 Eh
 1-El. energy change                    ....  1.000e-05 Eh
 Orbital Gradient       TolG            ....  1.000e-05
 Orbital Rotation angle TolX            ....  1.000e-05
 DIIS Error             TolErr          ....  5.000e-07

------------------------------
INITIAL GUESS: MODEL POTENTIAL
------------------------------
Loading Hartree-Fock densities                     ... done
Calculating cut-offs                               ... done
Initializing the effective Hamiltonian             ... done
Setting up the integral package (SHARK)            ... done
Starting the Coulomb interaction                   ... done (   7.2 sec)
Making the grid                                    ... done ( 299.6 sec)
Mapping shells                                     ... done
Starting the XC term evaluation                    ... done (   2.2 sec)
  promolecular density results
     # of electrons  =    291.995902128
     EX              =   -322.412526742
     EC              =    -10.977864475
     EX+EC           =   -333.390391217
Transforming the Hamiltonian                       ... done (  18.1 sec)
Diagonalizing the Hamiltonian                      ... done ( 406.0 sec)
Back transforming the eigenvectors                 ... done (  29.0 sec)
Now organizing SCF variables                       ... done
                      ------------------
                      INITIAL GUESS DONE ( 769.0 sec)
                      ------------------
             **** ENERGY FILE WAS UPDATED (APP_sp.en.tmp) ****
Finished Guess after 799.7 sec
Maximum memory used throughout the entire GUESS-calculation: 91.7 MB


           ************************************************************
           *        Program running with 24 parallel MPI-processes    *
           *              working on a common directory               *
           ************************************************************

-------------------------------------------------------------------------------------------
                                      ORCA LEAN-SCF
                              memory conserving SCF solver
-------------------------------------------------------------------------------------------

----------------------------------------D-I-I-S--------------------------------------------
Iteration    Energy (Eh)           Delta-E    RMSDP     MaxDP     DIISErr   Damp  Time(sec)
-------------------------------------------------------------------------------------------
               ***  Starting incremental Fock matrix formation  ***
    1    -3668.3444916317666866     0.00e+00  5.82e-03  1.59e-01  3.75e-01  0.700 555.6
Warning: op=0 Small HOMO/LUMO gap (   0.090) - skipping pre-diagonalization
         Will do a full diagonalization
    2    -3669.4317055030378469    -1.09e+00  3.29e-03  5.48e-02  1.45e-01  0.700 1017.5
                               ***Turning on AO-DIIS***
    3    -3669.7856195810991267    -3.54e-01  1.11e-03  2.75e-02  4.41e-02  0.700 569.4
    4    -3670.0055255960114664    -2.20e-01  1.54e-03  5.75e-02  1.72e-02  0.000 563.4
    5    -3670.5103818835659695    -5.05e-01  5.83e-04  1.62e-02  1.22e-02  0.000 559.1
                              *** Initializing SOSCF ***
---------------------------------------S-O-S-C-F--------------------------------------
Iteration    Energy (Eh)           Delta-E    RMSDP     MaxDP     MaxGrad    Time(sec)
--------------------------------------------------------------------------------------
    6    -3670.5127483218775524    -2.37e-03  2.00e-04  5.03e-03  2.17e-03   650.7
               *** Restarting incremental Fock matrix formation ***
    7    -3670.5128348697717229    -8.65e-05  1.17e-04  1.49e-03  2.08e-04   219.9
    8    -3670.5128372909939571    -2.42e-06  4.33e-05  5.92e-04  3.87e-04   218.6
    9    -3670.5128559239956303    -1.86e-05  2.84e-05  3.72e-04  1.87e-04   222.5
   10    -3670.5128552691339792     6.55e-07  9.35e-06  2.10e-04  2.68e-04   222.2
   11    -3670.5128570987390049    -1.83e-06  7.60e-06  9.42e-05  5.53e-05   227.7
   12    -3670.5128570521528673     4.66e-08  2.95e-06  5.16e-05  7.94e-05   229.9
   13    -3670.5128571485320208    -9.64e-08  1.91e-06  2.98e-05  1.10e-05   229.3
   14    -3670.5128571594405003    -1.09e-08  7.72e-07  1.55e-05  1.11e-05   232.5
   15    -3670.5128571691593606    -9.72e-09  5.83e-07  9.73e-06  1.16e-06   235.1
                 **** Energy Check signals convergence ****

               *****************************************************
               *                     SUCCESS                       *
               *           SCF CONVERGED AFTER  15 CYCLES          *
               *****************************************************

Recomputing exchange energy using gridx3       ... done (   36.191 sec)
Old exchange energy                            :    -65.024983167 Eh
New exchange energy                            :    -65.024980867 Eh
Exchange energy change after final integration :      0.000002300 Eh
Total energy after final integration           :  -3670.512854834 Eh
             **** ENERGY FILE WAS UPDATED (APP_sp.en.tmp) ****

----------------
TOTAL SCF ENERGY
----------------

Total Energy       :      -3670.51285483359106 Eh          -99879.73257 eV

Components:
Nuclear Repulsion  :       5118.13076439922133 Eh          139271.41852 eV
Electronic Energy  :      -8788.64362153263392 Eh         -239151.15115 eV
One Electron Energy:     -15278.42259892920447 Eh         -415747.01509 eV
Two Electron Energy:       6489.77897739657055 Eh          176595.86394 eV

Virial components:
Potential Energy   :      -7331.08920518490140 Eh         -199489.07910 eV
Kinetic Energy     :       3660.57635035131034 Eh           99609.34653 eV
Virial Ratio       :          2.00271446448080

DFT components:
N(Alpha)           :      145.999988447249 electrons
N(Beta)            :      145.999988447249 electrons
N(Total)           :      291.999976894498 electrons
E(X)               :     -258.670187997054 Eh       
E(C)               :      -12.877298609574 Eh       
E(XC)              :     -271.547486606629 Eh       

---------------
SCF CONVERGENCE
---------------

  Last Energy change         ...    9.7189e-09  Tolerance :   1.0000e-08
  Last MAX-Density change    ...    9.7304e-06  Tolerance :   1.0000e-07
  Last RMS-Density change    ...    5.8306e-07  Tolerance :   5.0000e-09
  Last DIIS Error            ...    2.1708e-03  Tolerance :   5.0000e-07
  Last Orbital Gradient      ...    1.1587e-06  Tolerance :   1.0000e-05
  Last Orbital Rotation      ...    3.3763e-06  Tolerance :   1.0000e-05


----------------
ORBITAL ENERGIES
----------------

  NO   OCC          E(Eh)            E(eV) 
   0   2.0000     -77.210426     -2101.0025 
   1   2.0000     -77.198599     -2100.6807 
   2   2.0000     -77.180794     -2100.1962 
   3   2.0000     -77.168680     -2099.8666 
   4   2.0000     -77.162823     -2099.7072 
   5   2.0000     -77.088460     -2097.6836 
   6   2.0000     -19.207690      -522.6678 
   7   2.0000     -19.165095      -521.5088 
   8   2.0000     -19.157252      -521.2953 
   9   2.0000     -19.150220      -521.1040 
  10   2.0000     -19.148377      -521.0538 
  11   2.0000     -19.147081      -521.0186 
  12   2.0000     -19.124832      -520.4131 
  13   2.0000     -19.110760      -520.0302 
  14   2.0000     -19.110677      -520.0280 
  15   2.0000     -19.097506      -519.6696 
  16   2.0000     -19.097252      -519.6627 
  17   2.0000     -19.092335      -519.5288 
  18   2.0000     -19.084523      -519.3163 
  19   2.0000     -19.071737      -518.9683 
  20   2.0000     -19.070045      -518.9223 
  21   2.0000     -19.067903      -518.8640 
  22   2.0000     -19.053772      -518.4795 
  23   2.0000     -14.427170      -392.5833 
  24   2.0000     -14.386157      -391.4672 
  25   2.0000     -14.366346      -390.9281 
  26   2.0000     -14.320374      -389.6772 
  27   2.0000     -14.314140      -389.5076 
  28   2.0000     -14.293418      -388.9437 
  29   2.0000      -6.683470      -181.8665 
  30   2.0000      -6.663012      -181.3098 
  31   2.0000      -6.645625      -180.8366 
  32   2.0000      -6.633726      -180.5129 
  33   2.0000      -6.628016      -180.3575 
  34   2.0000      -6.561509      -178.5477 
  35   2.0000      -4.849312      -131.9565 
  36   2.0000      -4.844198      -131.8173 
  37   2.0000      -4.841069      -131.7322 
  38   2.0000      -4.827760      -131.3700 
  39   2.0000      -4.825330      -131.3039 
  40   2.0000      -4.822305      -131.2216 
  41   2.0000      -4.809338      -130.8687 
  42   2.0000      -4.808547      -130.8472 
  43   2.0000      -4.805386      -130.7612 
  44   2.0000      -4.797776      -130.5541 
  45   2.0000      -4.796688      -130.5245 
  46   2.0000      -4.792899      -130.4214 
  47   2.0000      -4.792488      -130.4102 
  48   2.0000      -4.789394      -130.3260 
  49   2.0000      -4.788596      -130.3043 
  50   2.0000      -4.724504      -128.5603 
  51   2.0000      -4.722090      -128.4946 
  52   2.0000      -4.719315      -128.4191 
  53   2.0000      -1.128992       -30.7214 
  54   2.0000      -1.101591       -29.9758 
  55   2.0000      -1.081532       -29.4300 
  56   2.0000      -1.057820       -28.7848 
  57   2.0000      -1.043509       -28.3953 
  58   2.0000      -1.024210       -27.8702 
  59   2.0000      -1.015015       -27.6200 
  60   2.0000      -1.006171       -27.3793 
  61   2.0000      -1.003297       -27.3011 
  62   2.0000      -0.996066       -27.1043 
  63   2.0000      -0.992190       -26.9989 
  64   2.0000      -0.976804       -26.5802 
  65   2.0000      -0.970238       -26.4015 
  66   2.0000      -0.969065       -26.3696 
  67   2.0000      -0.954924       -25.9848 
  68   2.0000      -0.952341       -25.9145 
  69   2.0000      -0.946436       -25.7538 
  70   2.0000      -0.939170       -25.5561 
  71   2.0000      -0.937432       -25.5088 
  72   2.0000      -0.919627       -25.0243 
  73   2.0000      -0.880760       -23.9667 
  74   2.0000      -0.874872       -23.8065 
  75   2.0000      -0.853145       -23.2152 
  76   2.0000      -0.698469       -19.0063 
  77   2.0000      -0.661687       -18.0054 
  78   2.0000      -0.621880       -16.9222 
  79   2.0000      -0.609605       -16.5882 
  80   2.0000      -0.595873       -16.2145 
  81   2.0000      -0.582536       -15.8516 
  82   2.0000      -0.577057       -15.7025 
  83   2.0000      -0.558210       -15.1897 
  84   2.0000      -0.556121       -15.1328 
  85   2.0000      -0.551447       -15.0056 
  86   2.0000      -0.546186       -14.8625 
  87   2.0000      -0.540894       -14.7185 
  88   2.0000      -0.535080       -14.5603 
  89   2.0000      -0.532344       -14.4858 
  90   2.0000      -0.525182       -14.2909 
  91   2.0000      -0.516752       -14.0615 
  92   2.0000      -0.511573       -13.9206 
  93   2.0000      -0.497237       -13.5305 
  94   2.0000      -0.492938       -13.4135 
  95   2.0000      -0.490705       -13.3528 
  96   2.0000      -0.490196       -13.3389 
  97   2.0000      -0.483177       -13.1479 
  98   2.0000      -0.482489       -13.1292 
  99   2.0000      -0.475179       -12.9303 
 100   2.0000      -0.470429       -12.8010 
 101   2.0000      -0.467515       -12.7217 
 102   2.0000      -0.465620       -12.6702 
 103   2.0000      -0.462569       -12.5872 
 104   2.0000      -0.451646       -12.2899 
 105   2.0000      -0.443899       -12.0791 
 106   2.0000      -0.438286       -11.9264 
 107   2.0000      -0.436226       -11.8703 
 108   2.0000      -0.427964       -11.6455 
 109   2.0000      -0.421884       -11.4801 
 110   2.0000      -0.417235       -11.3536 
 111   2.0000      -0.410880       -11.1806 
 112   2.0000      -0.407655       -11.0929 
 113   2.0000      -0.399239       -10.8639 
 114   2.0000      -0.392801       -10.6887 
 115   2.0000      -0.384672       -10.4674 
 116   2.0000      -0.380497       -10.3538 
 117   2.0000      -0.377374       -10.2689 
 118   2.0000      -0.374441       -10.1890 
 119   2.0000      -0.368884       -10.0378 
 120   2.0000      -0.367140        -9.9904 
 121   2.0000      -0.362979        -9.8772 
 122   2.0000      -0.359124        -9.7723 
 123   2.0000      -0.347467        -9.4550 
 124   2.0000      -0.347180        -9.4473 
 125   2.0000      -0.344224        -9.3668 
 126   2.0000      -0.339309        -9.2331 
 127   2.0000      -0.335363        -9.1257 
 128   2.0000      -0.332035        -9.0351 
 129   2.0000      -0.328129        -8.9289 
 130   2.0000      -0.318093        -8.6557 
 131   2.0000      -0.314069        -8.5462 
 132   2.0000      -0.310465        -8.4482 
 133   2.0000      -0.307189        -8.3590 
 134   2.0000      -0.301169        -8.1952 
 135   2.0000      -0.300339        -8.1726 
 136   2.0000      -0.296935        -8.0800 
 137   2.0000      -0.291800        -7.9403 
 138   2.0000      -0.289593        -7.8802 
 139   2.0000      -0.285598        -7.7715 
 140   2.0000      -0.282657        -7.6915 
 141   2.0000      -0.277961        -7.5637 
 142   2.0000      -0.276416        -7.5217 
 143   2.0000      -0.272017        -7.4020 
 144   2.0000      -0.269875        -7.3437 
 145   2.0000      -0.207580        -5.6485 
 146   0.0000      -0.070849        -1.9279 
 147   0.0000      -0.043853        -1.1933 
 148   0.0000      -0.025627        -0.6973 
 149   0.0000       0.015821         0.4305 
 150   0.0000       0.026720         0.7271 
 151   0.0000       0.029158         0.7934 
 152   0.0000       0.034140         0.9290 
 153   0.0000       0.037281         1.0145 
 154   0.0000       0.038937         1.0595 
 155   0.0000       0.042344         1.1522 
 156   0.0000       0.069878         1.9015 
*Only the first 10 virtual orbitals were printed.

                    ********************************
                    * MULLIKEN POPULATION ANALYSIS *
                    ********************************

-----------------------
MULLIKEN ATOMIC CHARGES
-----------------------
   0 P :    0.463363
   1 O :   -0.584384
   2 O :   -0.450791
   3 P :    0.951297
   4 O :   -0.646156
   5 O :   -0.497221
   6 P :    0.900580
   7 O :   -0.570485
   8 O :   -0.529150
   9 P :    0.922327
  10 O :   -0.596199
  11 O :   -0.690081
  12 P :    0.932325
  13 O :   -0.611128
  14 O :   -0.592902
  15 P :    0.931051
  16 O :   -0.414479
  17 O :   -0.535559
  18 O :   -0.508727
  19 O :   -0.405762
  20 O :   -0.366386
  21 O :   -0.356597
  22 O :   -0.300908
  23 N :   -0.701332
  24 H :    0.268333
  25 H :    0.347930
  26 H :    0.229706
  27 H :    0.224228
  28 N :   -0.670816
  29 H :    0.240171
  30 H :    0.366498
  31 H :    0.238160
  32 H :    0.282431
  33 N :   -0.678223
  34 H :    0.292303
  35 H :    0.372596
  36 H :    0.235577
  37 H :    0.249354
  38 N :   -0.448771
  39 H :    0.319419
  40 H :    0.312964
  41 H :    0.293616
  42 H :    0.250362
  43 N :   -0.402659
  44 H :    0.251596
  45 H :    0.313714
  46 H :    0.301104
  47 H :    0.306952
  48 N :   -0.449144
  49 H :    0.275487
  50 H :    0.315425
  51 H :    0.275608
  52 H :    0.343383
Sum of atomic charges:   -0.0000000

--------------------------------
MULLIKEN REDUCED ORBITAL CHARGES
--------------------------------
  0 P s       :     5.804029  s :     5.804029
      pz      :     2.559049  p :     8.094861
      px      :     2.671813
      py      :     2.863999
      dz2     :     0.104694  d :     0.551902
      dxz     :     0.110447
      dyz     :     0.088718
      dx2y2   :     0.126882
      dxy     :     0.121162
      f0      :     0.009915  f :     0.085844
      f+1     :     0.016746
      f-1     :     0.004837
      f+2     :     0.013216
      f-2     :     0.009897
      f+3     :     0.012284
      f-3     :     0.018950

  1 O s       :     3.796057  s :     3.796057
      pz      :     1.619216  p :     4.765156
      px      :     1.690303
      py      :     1.455636
      dz2     :     0.003513  d :     0.022064
      dxz     :     0.001634
      dyz     :     0.005996
      dx2y2   :     0.004920
      dxy     :     0.006001
      f0      :     0.000080  f :     0.001107
      f+1     :     0.000046
      f-1     :     0.000128
      f+2     :     0.000109
      f-2     :     0.000125
      f+3     :     0.000309
      f-3     :     0.000310

  2 O s       :     3.737115  s :     3.737115
      pz      :     1.690404  p :     4.689623
      px      :     1.471062
      py      :     1.528158
      dz2     :     0.004407  d :     0.022934
      dxz     :     0.004391
      dyz     :     0.002353
      dx2y2   :     0.006479
      dxy     :     0.005304
      f0      :     0.000112  f :     0.001119
      f+1     :     0.000250
      f-1     :     0.000142
      f+2     :     0.000152
      f-2     :     0.000093
      f+3     :     0.000305
      f-3     :     0.000066

  3 P s       :     5.072103  s :     5.072103
      pz      :     2.601909  p :     7.799366
      px      :     2.588027
      py      :     2.609429
      dz2     :     0.181631  d :     1.016963
      dxz     :     0.209171
      dyz     :     0.212997
      dx2y2   :     0.208973
      dxy     :     0.204191
      f0      :     0.016380  f :     0.160272
      f+1     :     0.022835
      f-1     :     0.023497
      f+2     :     0.022206
      f-2     :     0.026884
      f+3     :     0.028670
      f-3     :     0.019799

  4 O s       :     3.848660  s :     3.848660
      pz      :     1.674913  p :     4.773699
      px      :     1.679260
      py      :     1.419526
      dz2     :     0.002978  d :     0.022667
      dxz     :     0.000692
      dyz     :     0.006714
      dx2y2   :     0.006181
      dxy     :     0.006103
      f0      :     0.000110  f :     0.001129
      f+1     :     0.000016
      f-1     :     0.000253
      f+2     :     0.000221
      f-2     :     0.000089
      f+3     :     0.000230
      f-3     :     0.000210

  5 O s       :     3.763609  s :     3.763609
      pz      :     1.528994  p :     4.707704
      px      :     1.519723
      py      :     1.658987
      dz2     :     0.002842  d :     0.024677
      dxz     :     0.003790
      dyz     :     0.006766
      dx2y2   :     0.005922
      dxy     :     0.005357
      f0      :     0.000101  f :     0.001231
      f+1     :     0.000276
      f-1     :     0.000183
      f+2     :     0.000215
      f-2     :     0.000236
      f+3     :     0.000112
      f-3     :     0.000107

  6 P s       :     5.069380  s :     5.069380
      pz      :     2.609389  p :     7.866713
      px      :     2.621486
      py      :     2.635837
      dz2     :     0.236566  d :     1.003012
      dxz     :     0.180493
      dyz     :     0.196269
      dx2y2   :     0.216954
      dxy     :     0.172729
      f0      :     0.033718  f :     0.160315
      f+1     :     0.017699
      f-1     :     0.019883
      f+2     :     0.030300
      f-2     :     0.015790
      f+3     :     0.024812
      f-3     :     0.018112

  7 O s       :     3.824010  s :     3.824010
      pz      :     1.514259  p :     4.720054
      px      :     1.580188
      py      :     1.625607
      dz2     :     0.007650  d :     0.025103
      dxz     :     0.006361
      dyz     :     0.005668
      dx2y2   :     0.002820
      dxy     :     0.002604
      f0      :     0.000245  f :     0.001318
      f+1     :     0.000269
      f-1     :     0.000185
      f+2     :     0.000240
      f-2     :     0.000227
      f+3     :     0.000077
      f-3     :     0.000077

  8 O s       :     3.766816  s :     3.766816
      pz      :     1.638244  p :     4.737489
      px      :     1.742477
      py      :     1.356768
      dz2     :     0.003605  d :     0.023676
      dxz     :     0.003906
      dyz     :     0.006615
      dx2y2   :     0.004559
      dxy     :     0.004991
      f0      :     0.000063  f :     0.001169
      f+1     :     0.000115
      f-1     :     0.000141
      f+2     :     0.000172
      f-2     :     0.000165
      f+3     :     0.000265
      f-3     :     0.000248

  9 P s       :     5.042413  s :     5.042413
      pz      :     2.621586  p :     7.886689
      px      :     2.654304
      py      :     2.610799
      dz2     :     0.218888  d :     0.993879
      dxz     :     0.201454
      dyz     :     0.199353
      dx2y2   :     0.162749
      dxy     :     0.211436
      f0      :     0.017380  f :     0.154692
      f+1     :     0.025712
      f-1     :     0.034610
      f+2     :     0.016814
      f-2     :     0.021572
      f+3     :     0.016550
      f-3     :     0.022054

 10 O s       :     3.825343  s :     3.825343
      pz      :     1.598007  p :     4.745398
      px      :     1.646830
      py      :     1.500562
      dz2     :     0.004325  d :     0.024181
      dxz     :     0.003069
      dyz     :     0.005335
      dx2y2   :     0.005824
      dxy     :     0.005628
      f0      :     0.000105  f :     0.001277
      f+1     :     0.000053
      f-1     :     0.000298
      f+2     :     0.000215
      f-2     :     0.000230
      f+3     :     0.000177
      f-3     :     0.000199

 11 O s       :     3.847757  s :     3.847757
      pz      :     1.408590  p :     4.820377
      px      :     1.700299
      py      :     1.711488
      dz2     :     0.007632  d :     0.020795
      dxz     :     0.005992
      dyz     :     0.005943
      dx2y2   :     0.000406
      dxy     :     0.000822
      f0      :     0.000395  f :     0.001152
      f+1     :     0.000331
      f-1     :     0.000280
      f+2     :     0.000063
      f-2     :     0.000071
      f+3     :     0.000009
      f-3     :     0.000004

 12 P s       :     5.037690  s :     5.037690
      pz      :     2.625510  p :     7.899799
      px      :     2.618827
      py      :     2.655462
      dz2     :     0.155556  d :     0.973331
      dxz     :     0.209885
      dyz     :     0.206079
      dx2y2   :     0.201975
      dxy     :     0.199836
      f0      :     0.014029  f :     0.156856
      f+1     :     0.026566
      f-1     :     0.025968
      f+2     :     0.028836
      f-2     :     0.017244
      f+3     :     0.022601
      f-3     :     0.021611

 13 O s       :     3.797021  s :     3.797021
      pz      :     1.629783  p :     4.791444
      px      :     1.491112
      py      :     1.670549
      dz2     :     0.004415  d :     0.021113
      dxz     :     0.004086
      dyz     :     0.003519
      dx2y2   :     0.005852
      dxy     :     0.003239
      f0      :     0.000134  f :     0.001550
      f+1     :     0.000303
      f-1     :     0.000115
      f+2     :     0.000276
      f-2     :     0.000269
      f+3     :     0.000278
      f-3     :     0.000176

 14 O s       :     3.829183  s :     3.829183
      pz      :     1.639584  p :     4.738597
      px      :     1.530130
      py      :     1.568883
      dz2     :     0.003686  d :     0.023845
      dxz     :     0.003511
      dyz     :     0.004790
      dx2y2   :     0.006201
      dxy     :     0.005657
      f0      :     0.000114  f :     0.001277
      f+1     :     0.000189
      f-1     :     0.000154
      f+2     :     0.000170
      f-2     :     0.000249
      f+3     :     0.000207
      f-3     :     0.000193

 15 P s       :     5.106440  s :     5.106440
      pz      :     2.644262  p :     7.990906
      px      :     2.650589
      py      :     2.696056
      dz2     :     0.214293  d :     0.846870
      dxz     :     0.199559
      dyz     :     0.119390
      dx2y2   :     0.153827
      dxy     :     0.159801
      f0      :     0.022063  f :     0.124732
      f+1     :     0.022920
      f-1     :     0.008899
      f+2     :     0.012455
      f-2     :     0.027620
      f+3     :     0.020981
      f-3     :     0.009793

 16 O s       :     3.828211  s :     3.828211
      pz      :     1.424897  p :     4.555683
      px      :     1.662809
      py      :     1.467976
      dz2     :     0.009152  d :     0.029141
      dxz     :     0.006087
      dyz     :     0.007238
      dx2y2   :     0.003416
      dxy     :     0.003249
      f0      :     0.000332  f :     0.001444
      f+1     :     0.000162
      f-1     :     0.000332
      f+2     :     0.000240
      f-2     :     0.000245
      f+3     :     0.000066
      f-3     :     0.000066

 17 O s       :     3.824417  s :     3.824417
      pz      :     1.519759  p :     4.686342
      px      :     1.534812
      py      :     1.631770
      dz2     :     0.005745  d :     0.023393
      dxz     :     0.005667
      dyz     :     0.003797
      dx2y2   :     0.003990
      dxy     :     0.004195
      f0      :     0.000196  f :     0.001406
      f+1     :     0.000370
      f-1     :     0.000068
      f+2     :     0.000263
      f-2     :     0.000292
      f+3     :     0.000106
      f-3     :     0.000110

 18 O s       :     3.790398  s :     3.790398
      pz      :     1.428282  p :     4.695648
      px      :     1.680534
      py      :     1.586831
      dz2     :     0.004221  d :     0.021473
      dxz     :     0.003290
      dyz     :     0.006061
      dx2y2   :     0.003757
      dxy     :     0.004144
      f0      :     0.000197  f :     0.001208
      f+1     :     0.000179
      f-1     :     0.000237
      f+2     :     0.000222
      f-2     :     0.000204
      f+3     :     0.000083
      f-3     :     0.000087

 19 O s       :     3.699239  s :     3.699239
      pz      :     1.401648  p :     4.683843
      px      :     1.579899
      py      :     1.702296
      dz2     :     0.004857  d :     0.020900
      dxz     :     0.005066
      dyz     :     0.004826
      dx2y2   :     0.003611
      dxy     :     0.002540
      f0      :     0.000355  f :     0.001779
      f+1     :     0.000397
      f-1     :     0.000329
      f+2     :     0.000328
      f-2     :     0.000258
      f+3     :     0.000059
      f-3     :     0.000054

 20 O s       :     3.714011  s :     3.714011
      pz      :     1.667841  p :     4.626646
      px      :     1.274737
      py      :     1.684068
      dz2     :     0.004095  d :     0.024221
      dxz     :     0.006127
      dyz     :     0.003559
      dx2y2   :     0.004482
      dxy     :     0.005958
      f0      :     0.000169  f :     0.001508
      f+1     :     0.000251
      f-1     :     0.000062
      f+2     :     0.000250
      f-2     :     0.000122
      f+3     :     0.000323
      f-3     :     0.000332

 21 O s       :     3.712266  s :     3.712266
      pz      :     1.595506  p :     4.619570
      px      :     1.577065
      py      :     1.447000
      dz2     :     0.004670  d :     0.023099
      dxz     :     0.004857
      dyz     :     0.006251
      dx2y2   :     0.003521
      dxy     :     0.003799
      f0      :     0.000075  f :     0.001661
      f+1     :     0.000113
      f-1     :     0.000203
      f+2     :     0.000132
      f-2     :     0.000336
      f+3     :     0.000410
      f-3     :     0.000391

 22 O s       :     3.720611  s :     3.720611
      pz      :     1.570031  p :     4.554211
      px      :     1.429260
      py      :     1.554920
      dz2     :     0.003822  d :     0.024322
      dxz     :     0.005993
      dyz     :     0.004090
      dx2y2   :     0.005296
      dxy     :     0.005120
      f0      :     0.000122  f :     0.001763
      f+1     :     0.000223
      f-1     :     0.000159
      f+2     :     0.000181
      f-2     :     0.000346
      f+3     :     0.000397
      f-3     :     0.000336

 23 N s       :     3.563015  s :     3.563015
      pz      :     1.316293  p :     4.118633
      px      :     1.222329
      py      :     1.580011
      dz2     :     0.006609  d :     0.018337
      dxz     :     0.000090
      dyz     :     0.003179
      dx2y2   :     0.005535
      dxy     :     0.002924
      f0      :     0.000360  f :     0.001347
      f+1     :     0.000280
      f-1     :     0.000012
      f+2     :     0.000134
      f-2     :     0.000108
      f+3     :     0.000461
      f-3     :    -0.000008

 24 H s       :     0.692164  s :     0.692164
      pz      :     0.022312  p :     0.039503
      px      :     0.008236
      py      :     0.008956

 25 H s       :     0.593125  s :     0.593125
      pz      :     0.012023  p :     0.058945
      px      :     0.015711
      py      :     0.031211

 26 H s       :     0.733902  s :     0.733902
      pz      :     0.007664  p :     0.036391
      px      :     0.018368
      py      :     0.010359

 27 H s       :     0.739234  s :     0.739234
      pz      :     0.010703  p :     0.036538
      px      :     0.008947
      py      :     0.016888

 28 N s       :     3.548407  s :     3.548407
      pz      :     1.573819  p :     4.102580
      px      :     1.246570
      py      :     1.282190
      dz2     :     0.003138  d :     0.018464
      dxz     :     0.007259
      dyz     :     0.003028
      dx2y2   :     0.004239
      dxy     :     0.000800
      f0      :     0.000186  f :     0.001366
      f+1     :     0.000026
      f-1     :     0.000334
      f+2     :     0.000235
      f-2     :     0.000186
      f+3     :     0.000256
      f-3     :     0.000143

 29 H s       :     0.723933  s :     0.723933
      pz      :     0.014111  p :     0.035896
      px      :     0.011857
      py      :     0.009928

 30 H s       :     0.563200  s :     0.563200
      pz      :     0.036736  p :     0.070302
      px      :     0.011655
      py      :     0.021912

 31 H s       :     0.725976  s :     0.725976
      pz      :     0.010093  p :     0.035864
      px      :     0.007488
      py      :     0.018282

 32 H s       :     0.678653  s :     0.678653
      pz      :     0.011024  p :     0.038916
      px      :     0.020523
      py      :     0.007369

 33 N s       :     3.547253  s :     3.547253
      pz      :     1.421805  p :     4.111162
      px      :     1.480343
      py      :     1.209014
      dz2     :     0.004867  d :     0.018412
      dxz     :     0.002497
      dyz     :     0.003926
      dx2y2   :     0.005172
      dxy     :     0.001950
      f0      :     0.000084  f :     0.001397
      f+1     :     0.000198
      f-1     :     0.000304
      f+2     :     0.000275
      f-2     :     0.000156
      f+3     :    -0.000010
      f-3     :     0.000389

 34 H s       :     0.667052  s :     0.667052
      pz      :     0.011136  p :     0.040646
      px      :     0.020979
      py      :     0.008530

 35 H s       :     0.555959  s :     0.555959
      pz      :     0.031861  p :     0.071445
      px      :     0.020923
[...]
      pz      :     1.261453  p :     3.854875
      px      :     1.286647
      py      :     1.306774
      dz2     :     0.023505  d :     0.071313
      dxz     :     0.011006
      dyz     :     0.006788
      dx2y2   :     0.019320
      dxy     :     0.010694
      f0      :     0.001382  f :     0.005372
      f+1     :     0.000392
      f-1     :     0.000355
      f+2     :     0.000969
      f-2     :     0.000860
      f+3     :     0.000202
      f-3     :     0.001212

 44 H s       :     0.732250  s :     0.732250
      pz      :     0.064295  p :     0.106613
      px      :     0.021231
      py      :     0.021087

 45 H s       :     0.688372  s :     0.688372
      pz      :     0.038317  p :     0.141465
      px      :     0.073062
      py      :     0.030085

 46 H s       :     0.702868  s :     0.702868
      pz      :     0.019945  p :     0.124723
      px      :     0.080040
      py      :     0.024738

 47 H s       :     0.711088  s :     0.711088
      pz      :     0.024959  p :     0.121555
      px      :     0.021860
      py      :     0.074737

 48 N s       :     3.050457  s :     3.050457
      pz      :     1.253683  p :     3.865344
      px      :     1.346790
      py      :     1.264871
      dz2     :     0.017236  d :     0.070474
      dxz     :     0.008202
      dyz     :     0.016529
      dx2y2   :     0.018111
      dxy     :     0.010396
      f0      :     0.000675  f :     0.005565
      f+1     :     0.001213
      f-1     :     0.000562
      f+2     :     0.000779
      f-2     :     0.000788
      f+3     :     0.001349
      f-3     :     0.000199

 49 H s       :     0.718504  s :     0.718504
      pz      :     0.023325  p :     0.106572
      px      :     0.032729
      py      :     0.050518

 50 H s       :     0.691038  s :     0.691038
      pz      :     0.051484  p :     0.140742
      px      :     0.023790
      py      :     0.065468

 51 H s       :     0.718833  s :     0.718833
      pz      :     0.056292  p :     0.107283
      px      :     0.028713
      py      :     0.022278

 52 H s       :     0.636897  s :     0.636897
      pz      :     0.021788  p :     0.213460
      px      :     0.174809
      py      :     0.016864



                      *****************************
                      * MAYER POPULATION ANALYSIS *
                      *****************************

  NA   - Mulliken gross atomic population
  ZA   - Total nuclear charge
  QA   - Mulliken gross atomic charge
  VA   - Mayer's total valence
  BVA  - Mayer's bonded valence
  FA   - Mayer's free valence

  ATOM       NA         ZA         QA         VA         BVA        FA
  0 P     14.5366    15.0000     0.4634     3.4625     3.4625    -0.0000
  1 O      8.5844     8.0000    -0.5844     1.8752     1.8752     0.0000
  2 O      8.4508     8.0000    -0.4508     1.9346     1.9346    -0.0000
  3 P     14.0487    15.0000     0.9513     5.5440     5.5440     0.0000
  4 O      8.6462     8.0000    -0.6462     1.8813     1.8813    -0.0000
  5 O      8.4972     8.0000    -0.4972     2.0470     2.0470     0.0000
  6 P     14.0994    15.0000     0.9006     5.6515     5.6515    -0.0000
  7 O      8.5705     8.0000    -0.5705     2.0423     2.0423     0.0000
  8 O      8.5291     8.0000    -0.5291     1.9286     1.9286     0.0000
  9 P     14.0777    15.0000     0.9223     5.6333     5.6333    -0.0000
 10 O      8.5962     8.0000    -0.5962     2.0013     2.0013     0.0000
 11 O      8.6901     8.0000    -0.6901     1.8032     1.8032     0.0000
 12 P     14.0677    15.0000     0.9323     5.6166     5.6166     0.0000
 13 O      8.6111     8.0000    -0.6111     1.8921     1.8921     0.0000
 14 O      8.5929     8.0000    -0.5929     1.9895     1.9895     0.0000
 15 P     14.0689    15.0000     0.9311     5.3357     5.3357    -0.0000
 16 O      8.4145     8.0000    -0.4145     2.2060     2.2060    -0.0000
 17 O      8.5356     8.0000    -0.5356     1.9962     1.9962    -0.0000
 18 O      8.5087     8.0000    -0.5087     1.9686     1.9686    -0.0000
 19 O      8.4058     8.0000    -0.4058     2.0685     2.0685    -0.0000
 20 O      8.3664     8.0000    -0.3664     2.0860     2.0860    -0.0000
 21 O      8.3566     8.0000    -0.3566     2.1441     2.1441     0.0000
 22 O      8.3009     8.0000    -0.3009     2.2057     2.2057    -0.0000
 23 N      7.7013     7.0000    -0.7013     2.8805     2.8805    -0.0000
 24 H      0.7317     1.0000     0.2683     0.9634     0.9634    -0.0000
 25 H      0.6521     1.0000     0.3479     0.9502     0.9502     0.0000
 26 H      0.7703     1.0000     0.2297     0.9487     0.9487     0.0000
 27 H      0.7758     1.0000     0.2242     0.9522     0.9522    -0.0000
 28 N      7.6708     7.0000    -0.6708     2.9723     2.9723    -0.0000
 29 H      0.7598     1.0000     0.2402     0.9458     0.9458     0.0000
 30 H      0.6335     1.0000     0.3665     0.9490     0.9490    -0.0000
 31 H      0.7618     1.0000     0.2382     0.9459     0.9459     0.0000
 32 H      0.7176     1.0000     0.2824     0.9543     0.9543    -0.0000
 33 N      7.6782     7.0000    -0.6782     2.9788     2.9788    -0.0000
 34 H      0.7077     1.0000     0.2923     0.9557     0.9557     0.0000
 35 H      0.6274     1.0000     0.3726     0.9469     0.9469    -0.0000
 36 H      0.7644     1.0000     0.2356     0.9489     0.9489    -0.0000
 37 H      0.7506     1.0000     0.2494     0.9431     0.9431     0.0000
 38 N      7.4488     7.0000    -0.4488     3.2872     3.2872     0.0000
 39 H      0.6806     1.0000     0.3194     1.0042     1.0042    -0.0000
 40 H      0.6870     1.0000     0.3130     0.9545     0.9545     0.0000
 41 H      0.7064     1.0000     0.2936     0.9459     0.9459     0.0000
 42 H      0.7496     1.0000     0.2504     0.9441     0.9441     0.0000
 43 N      7.4027     7.0000    -0.4027     3.3784     3.3784    -0.0000
 44 H      0.7484     1.0000     0.2516     0.9878     0.9878    -0.0000
 45 H      0.6863     1.0000     0.3137     0.9715     0.9715    -0.0000
 46 H      0.6989     1.0000     0.3011     0.9687     0.9687    -0.0000
 47 H      0.6930     1.0000     0.3070     0.9473     0.9473    -0.0000
 48 N      7.4491     7.0000    -0.4491     3.3187     3.3187    -0.0000
 49 H      0.7245     1.0000     0.2755     0.9296     0.9296    -0.0000
 50 H      0.6846     1.0000     0.3154     0.9455     0.9455     0.0000
 51 H      0.7244     1.0000     0.2756     0.9302     0.9302    -0.0000
 52 H      0.6566     1.0000     0.3434     0.9667     0.9667    -0.0000

  Mayer bond orders larger than 0.100000
B(  0-P ,  1-O ) :   1.6047 B(  0-P ,  2-O ) :   1.1544 B(  0-P , 18-O ) :   0.4841 
B(  1-O , 39-H ) :   0.2730 B(  2-O , 25-H ) :   0.7748 B(  3-P ,  4-O ) :   1.6759 
B(  3-P ,  5-O ) :   1.3657 B(  3-P , 18-O ) :   1.4286 B(  3-P , 19-O ) :   0.9223 
B(  4-O , 46-H ) :   0.1088 B(  5-O , 30-H ) :   0.6627 B(  6-P ,  7-O ) :   1.9740 
B(  6-P ,  8-O ) :   1.2620 B(  6-P , 19-O ) :   1.1203 B(  6-P , 20-O ) :   1.1088 
B(  8-O , 35-H ) :   0.6351 B(  9-P , 10-O ) :   1.9074 B(  9-P , 11-O ) :   1.5926 
B(  9-P , 20-O ) :   0.9731 B(  9-P , 21-O ) :   0.9993 B( 11-O , 40-H ) :   0.1112 
B( 12-P , 13-O ) :   1.6485 B( 12-P , 14-O ) :   1.8264 B( 12-P , 21-O ) :   1.1423 
B( 12-P , 22-O ) :   0.8377 B( 13-O , 52-H ) :   0.2476 B( 14-O , 45-H ) :   0.1428 
B( 15-P , 16-O ) :   2.1129 B( 15-P , 17-O ) :   1.8082 B( 15-P , 22-O ) :   1.3230 
B( 23-N , 24-H ) :   0.8889 B( 23-N , 25-H ) :   0.1265 B( 23-N , 26-H ) :   0.9404 
B( 23-N , 27-H ) :   0.9426 B( 28-N , 29-H ) :   0.9369 B( 28-N , 30-H ) :   0.2441 
B( 28-N , 31-H ) :   0.9328 B( 28-N , 32-H ) :   0.8808 B( 33-N , 34-H ) :   0.8616 
B( 33-N , 35-H ) :   0.2785 B( 33-N , 36-H ) :   0.9354 B( 33-N , 37-H ) :   0.9289 
B( 38-N , 39-H ) :   0.6814 B( 38-N , 40-H ) :   0.8284 B( 38-N , 41-H ) :   0.8869 
B( 38-N , 42-H ) :   0.9214 B( 43-N , 44-H ) :   0.8979 B( 43-N , 45-H ) :   0.7974 
B( 43-N , 46-H ) :   0.8300 B( 43-N , 47-H ) :   0.8638 B( 48-N , 49-H ) :   0.9127 
B( 48-N , 50-H ) :   0.8334 B( 48-N , 51-H ) :   0.9122 B( 48-N , 52-H ) :   0.6940 


-------
TIMINGS
-------

Total SCF time: 0 days 1 hours 46 min 18 sec 

Total time                  ....    6378.058 sec
Sum of individual times     ....    6690.952 sec  (104.9%)

SCF preparation             ....     100.910 sec  (  1.6%)
Fock matrix formation       ....    1477.057 sec  ( 23.2%)
  Startup                   ....      10.979 sec  (  0.7% of F)
  Split-RI-J                ....     140.976 sec  (  9.5% of F)
  Chain of spheres X        ....     738.757 sec  ( 50.0% of F)
  XC integration            ....     511.385 sec  ( 34.6% of F)
    XC Preparation          ....       0.000 sec  (  0.0% of XC)
    Basis function eval.    ....       4.260 sec  (  0.8% of XC)
    Density eval.           ....       4.294 sec  (  0.8% of XC)
    XC-Functional eval.     ....       0.213 sec  (  0.0% of XC)
    XC-Potential eval.      ....       3.891 sec  (  0.8% of XC)
Diagonalization             ....       0.000 sec  (  0.0%)
Density matrix formation    ....      89.679 sec  (  1.4%)
Total Energy calculation    ....      70.861 sec  (  1.1%)
Population analysis         ....      74.424 sec  (  1.2%)
Orbital Transformation      ....     532.532 sec  (  8.3%)
Orbital Orthonormalization  ....       0.000 sec  (  0.0%)
DIIS solution               ....    3193.015 sec  ( 50.1%)
SOSCF solution              ....    1152.473 sec  ( 18.1%)
Finished LeanSCF after 6380.7 sec

Maximum memory used throughout the entire LEANSCF-calculation: 150.6 MB


-------------------------------------------------------------------------------
                          DFT DISPERSION CORRECTION                            
                                                                               
                              DFTD3 V3.1  Rev 1                                
                          USING Becke-Johnson damping                          
-------------------------------------------------------------------------------
The B3LYP functional is recognized
Active option DFTDOPT                   ...         4   

molecular C6(AA) [au] = 38103.781821 


            DFT-D V3
 parameters
 s6 scaling factor         :     1.0000 
 a1 scaling factor         :     0.3981 
 s8 scaling factor         :     1.9889 
 a2 scaling factor         :     4.4211 
 ad hoc parameters k1-k3   :    16.0000     1.3333    -4.0000 

 Edisp/kcal,au: -80.522938964164  -0.128321457608 
 E6   /kcal   : -36.933173905 
 E8   /kcal   : -43.589765059 
 % E8         :  54.133350843 

-------------------------   ----------------
Dispersion correction           -0.128321458
-------------------------   ----------------


-------------------------   --------------------
FINAL SINGLE POINT ENERGY     -3670.641176291199
-------------------------   --------------------



           ************************************************************
           *        Program running with 24 parallel MPI-processes    *
           *              working on a common directory               *
           ************************************************************

------------------------------------------------------------------------------
                              ORCA PROPERTY CALCULATIONS
------------------------------------------------------------------------------

GBWName                                 ... APP_sp.gbw
Number of atoms                         ...     53
Number of basis functions               ...   1079
Max core memory                         ...   4096 MB

Electric properties:
Dipole moment                           ... YES
Quadrupole moment                       ...  NO
Static polarizability (Dipole/Dipole)   ...  NO
Static polarizability (Dipole/Quad.)    ...  NO
Static polarizability (Quad./Quad.)     ...  NO
Static polarizability (Velocity)        ...  NO
Static hyperpolarizability              ...  NO

Atomic electric properties:
Dipole moment                           ...  NO
Quadrupole moment                       ...  NO
Static polarizability                   ...  NO

Choice of electric origin               ... Center of mass
Position of electric origin             ...    15.388898    -2.603252     1.178092

General magnetic properties:
Magnetizability                         ...  NO

EPR properties:
g-Tensor (aka g-matrix)                 ...  NO
Zero-Field splitting spin-orbit         ...  NO
Zero-field splitting spin-spin          ...  NO
Hyperfine couplings                     ...  NO (   0 nuclei)
Quadrupole couplings                    ...  NO (   0 nuclei)
Contact density                         ...  NO (   0 nuclei)

NMR properties:
Chemical shifts                         ...  NO (   0 nuclei)
Spin-rotation constants                 ...  NO (   0 nuclei)
Spin-spin couplings                     ...  NO (   0 nuclei,    0 pairs)

Choice of magnetic origin               ... GIAO
Position of magnetic origin             ...     0.000000     0.000000     0.000000

Properties with geometric perturbations:
SCF Hessian                             ...  NO
IR spectrum                             ...  NO
VCD spectrum                            ...  NO
X-ray spectroscopy properties:
SCF XES/XAS/RIXS spectra                ...  NO

SCF SOC stabilization energy            ...  NO
Diagonal Born-Oppenheimer correction    ...  NO

-------------
DIPOLE MOMENT
-------------

Method             : SCF
Type of density    : Electron Density
Multiplicity       :   1
Irrep              :   0
Energy             : -3670.5128548335910637 Eh
Basis              : AO
                                X                 Y                 Z
Electronic contribution:     23.321963952      10.658115136     -10.013689336
Nuclear contribution   :    -20.170191605     -10.830031616      10.032587702
                        -----------------------------------------
Total Dipole Moment    :      3.151772347      -0.171916480       0.018898366
                        -----------------------------------------
Magnitude (a.u.)       :      3.156514114
Magnitude (Debye)      :      8.023221262



--------------------
Rotational spectrum 
--------------------
 
Rotational constants in cm-1:             0.005228             0.002140             0.001939 
Rotational constants in MHz :           156.732687            64.142048            58.117198 

Dipole components along the rotational axes: 
x,y,z [a.u.] :    -2.834797     0.653717     1.224810 
x,y,z [Debye]:    -7.205483     1.661616     3.113219 

 

Dipole moment calculation done in   1.5 sec 

Maximum memory used throughout the entire PROP-calculation: 98.1 MB

--------------------------------
SUGGESTED CITATIONS FOR THIS RUN
--------------------------------

Below you find a list of papers that are relevant to this ORCA run
We neither can nor want to force you to cite these papers, but we appreciate if you do
You receive ORCA, which is the product of decades of hard work by many enthusiastic individuals, for free
The only thing we kindly ask in return is that you cite our papers,
We deeply appreciate it, if you show your appreciation for ORCA by not just citing the generic ORCA reference.

Please note that relegating all ORCA citations to the supporting information does *not* help us.
SI sections are not indexed - citations you put there will not count into any citation statistics
But we need these citations in order to attract the funding resources that allow us to do what we are doing

Therefore, if you are a happy ORCA user, please consider citing a few of the papers listed below in the main body of your paper

In addition to the list printed below, the program has created the file APP_sp.bibtex that contains the list in bibtex format
You can import this file easily into all common literature databanks and citation aid programs


List of essential papers. We consider these as the minimum necessary citations

  1. Neese, F.
     Software update: the ORCA program system, version 6.0
     WIRES Comput. Molec. Sci. 2025 15(1), e70019
     doi.org/10.1002/wcms.7019

List of papers to cite with high priority. The work reported in these papers was absolutely
necessary for this run to complete.
Our perspective: the developers of density functionals and basis sets usually get cited in chemistry papers
Good! But without the algorithms to do something with them, the functionals or basis sets would not do anything.
Hence, in our opinion, the algorithm design and method developments papers are equally worthy of getting cited

  1. Neese, F.
     An improvement of the resolution of the identity approximation for the formation of the Coulomb matrix
     J. Comp. Chem. 2003 24(14), 1740-1747
     doi.org/10.1002/jcc.10318
  2. Neese, F.; Wennmohs, F.; Hansen, A.; Becker, U.
     Efficient, approximate and parallel Hartree-Fock and hybrid DFT calculations. A 'chain-of-spheres' algorithm for the Hartree-Fock exchange
     Chem. Phys. 2009 356(1-3), 98-109
     doi.org/10.1016/j.chemphys.2008.10.036
  3. Grimme, S.; Antony, J.; Ehrlich, S.; Krieg, H.
     A consistent and accurate ab initio parametrization of density functional dispersion correction (DFT-D) for the 94 elements H-Pu
     J. Chem. Phys. 2010 132 , 154104
     doi.org/10.1063/1.3382344
  4. Grimme, S.; Ehrlich, S.; Goerigk, L.
     Effect of the damping function in dispersion corrected density functional theory
     J. Comput. Chem. 2011 32(7), 1456-1465
     doi.org/10.1002/jcc.21759
  5. Helmich-Paris, B.; de Souza, B.; Neese, F.; Izsák, R.
     An improved chain of spheres for exchange algorithm
     J. Chem. Phys. 2021 155(10), 104109
     doi.org/10.1063/5.0058766
  6. Neese, F.
     The SHARK Integral Generation and Digestion System
     J. Comp. Chem. 2022 44(3), 381
     doi.org/10.1002/jcc.26942

List of suggested additional citations. These are papers that are important in the 'surrounding' of 
of this run, or papers that preceded the highly important papers. If you like your results we are grateful for a citation.

  1. Izsak, R.; Neese, F.
     An overlap fitted chain of spheres exchange method
     J. Chem. Phys. 2011 135 , 144105
     doi.org/10.1063/1.3646921
  2. Izsak, R.; Hansen, A.; Neese, F.
     The resolution of identity and chain of spheres approximations for the LPNO-CCSD singles Fock term
     Molec. Phys. 2012 110 , 2413-2417
     doi.org/10.1080/00268976.2012.687466
  3. Neese, F.
     The ORCA program system
     WIRES Comput. Molec. Sci. 2012 2(1), 73-78
     doi.org/10.1002/wcms.81
  4. Izsak, R.; Neese, F.; Klopper, W.
     Robust fitting techniques in the chain of spheres approximation to the Fock exchange: The role of the complementary space
     J. Chem. Phys. 2013 139 , 
     doi.org/10.1063/1.4819264
  5. Neese, F.
     Software update: the ORCA program system, version 4.0
     WIRES Comput. Molec. Sci. 2018 8(1), 1-6
     doi.org/10.1002/wcms.1327
  6. Neese, F.; Wennmohs, F.; Becker, U.; Riplinger, C.
     The ORCA quantum chemistry program package
     J. Chem. Phys. 2020 152(22), 224108
     doi.org/10.1063/5.0004608
  7. Neese, F.
     Software update: The ORCA program system—Version 5.0
     WIRES Comput. Molec. Sci. 2022 12(1), e1606
     doi.org/10.1002/wcms.1606

List of optional additional citations

  1. Neese, F.
     Approximate second-order SCF convergence for spin unrestricted wavefunctions
     Chem. Phys. Lett. 2000 325(1-3), 93-98
     doi.org/10.1016/s0009-2614(00)00662-x

Timings for individual modules:

Sum of individual times          ...     9320.194 sec (= 155.337 min)
Startup calculation              ...     2096.720 sec (=  34.945 min)  22.5 %
SCF iterations                   ...     7181.905 sec (= 119.698 min)  77.1 %
Property calculations            ...       41.568 sec (=   0.693 min)   0.4 %
                             ****ORCA TERMINATED NORMALLY****
TOTAL RUN TIME: 0 days 2 hours 35 minutes 29 seconds 486 msec
