nohup: ignoring input

                                 *****************
                                 * O   R   C   A *
                                 *****************

                                            #,                                       
                                            ###                                      
                                            ####                                     
                                            #####                                    
                                            ######                                   
                                           ########,                                 
                                     ,,################,,,,,                         
                               ,,#################################,,                 
                          ,,##########################################,,             
                       ,#########################################, ''#####,          
                    ,#############################################,,   '####,        
                  ,##################################################,,,,####,       
                ,###########''''           ''''###############################       
              ,#####''   ,,,,##########,,,,          '''####'''          '####       
            ,##' ,,,,###########################,,,                        '##       
           ' ,,###''''                  '''############,,,                           
         ,,##''                                '''############,,,,        ,,,,,,###''
      ,#''                                            '''#######################'''  
     '                                                          ''''####''''         
             ,#######,   #######,   ,#######,      ##                                
            ,#'     '#,  ##    ##  ,#'     '#,    #''#        ,####,    ,#,          
            ##       ##  ##   ,#'  ##            #'  '#       #'       ,# #          
            ##       ##  #######   ##           ,######,      #####,      #          
            '#,     ,#'  ##    ##  '#,     ,#' ,#      #,     #,   #      #          
             '#######'   ##     ##  '#######'  #'      '#     '####' #    #          



                #########################################################
                #                        -***-                          #
                #          Department of theory and spectroscopy        #
                #                                                       #
                #                      Frank Neese                      #
                #                                                       #
                #     Directorship, Architecture, Infrastructure        #
                #                    SHARK, DRIVERS                     #
                #        Core code/Algorithms in most modules           #
                #                                                       #
                #        Max Planck Institute fuer Kohlenforschung      #
                #                Kaiser Wilhelm Platz 1                 #
                #                 D-45470 Muelheim/Ruhr                 #
                #                      Germany                          #
                #                                                       #
                #                  All rights reserved                  #
                #                        -***-                          #
                #########################################################


                         Program Version 6.1.0  -  RELEASE   -
                                (GIT: $679e74b$)
                          ($2025-06-10 18:02:51 +0200$)


 With contributions from (in alphabetic order):
[Max-Planck-Institut fuer Kohlenforschung]                               
  Daniel Aravena         : Magnetic Suceptibility                        
  Michael Atanasov       : Ab Initio Ligand Field Theory (pilot matlab implementation)
  Alexander A. Auer      : GIAO ZORA, VPT2 properties, NMR spectrum      
  Ute Becker             : All parallelization in ORCA, NUMFREQ, NUMCALC 
  Giovanni Bistoni       : ED, misc. LED, open-shell LED, HFLD           
  Dmytro Bykov           : pre 5.0 version of the SCF Hessian            
  Marcos Casanova-Páez   : Triplet and SCS-CIS(D). UHF-(DLPNO)-IP/EA/STEOM-CCSD. UHF-CVS-IP/STEOM-CCSD   
  Vijay G. Chilkuri      : MRCI spin determinant printing, contributions to CSF-ICE 
  Pauline Colinet        : FMM embedding                                 
  Dipayan Datta          : RHF DLPNO-CCSD density                        
  Achintya Kumar Dutta   : EOM-CC, STEOM-CC                              
  Nicolas Foglia         : Exact transition moments, OPA infrastructure, MCD improvements    
  Dmitry Ganyushin       : Spin-Orbit,Spin-Spin,Magnetic field MRCI      
  Miquel Garcia-Rates    : C-PCM and meta-GGA Hessian, CCSD/C-PCM, Gaussian charge scheme 
  Tiago L. C. Gouveia    : GS-ROHF, GS-ROCIS                             
  Yang Guo               : DLPNO-NEVPT2, F12-NEVPT2, CIM, IAO-localization        
  Andreas Hansen         : Spin unrestricted coupled pair/coupled cluster methods 
  Ingolf Harden          : AUTO-CI MPn and infrastructure                
  Benjamin Helmich-Paris : MC-RPA, TRAH-(SCF,CASSCF), AVAS, COSX integrals, SCF dyn. polar., MC-PDFT, srDFT 
  Lee Huntington         : MR-EOM, pCC                                   
  Robert Izsak           : Overlap fitted RIJCOSX, COSX-SCS-MP3, EOM     
  Riya Kayal             : Wick's Theorem for AUTO-CI, AUTO-CI UHF-CCSDT 
  Emily Kempfer          : AUTO-CI RHF CISDT and CCSDT, approximate NEVPT4
  Christian Kollmar      : KDIIS, OOCD, Brueckner-CCSD(T), CCSD density, CASPT2, CASPT2-K, improved NEVPT2 
  Axel Koslowski         : Symmetry handling                             
  Simone Kossmann        : meta-GGA functionals, TD-DFT gradient, OOMP2, (MP2 Hessian; deprecated post 5.0) 
  Lucas Lang             : DCDCAS, Hyperfine gauge corrections, ICE-SOC+SSC
  Marvin Lechner         : AUTO-CI (C++ implementation), FIC-MRCC        
  Spencer Leger          : CASSCF response                               
  Dagmar Lenk            : GEPOL surface, SMD, ORCA-2-JSON               
  Dimitrios Liakos       : Extrapolation schemes; Compound Job, Property file
  Dimitrios Manganas     : Further ROCIS development; embedding schemes. LFT, Crystal Embedding 
  Dimitrios Pantazis     : SARC Basis sets                               
  Anastasios Papadopoulos: AUTO-CI, single reference methods and gradients 
  Taras Petrenko         : pre 6.0 DFT Hessian and TD-DFT gradient,  ECA, NRVS 
  Petra Pikulova         : Analytic Raman intensities                    
  Peter Pinski           : DLPNO-MP2, DLPNO-MP2 Gradient                 
  Shashank Vittal Rao    : ES-AILFT, MagRelax                            
  Christoph Reimann      : Effective Core Potentials                     
  Marius Retegan         : Local ZFS, SOC                                
  Christoph Riplinger    : Optimizer, TS searches, QM/MM, DLPNO-CCSD(T), (RO)-DLPNO pert. Triples 
  Michael Roemelt        : Original ROCIS implementation, recursive CI coupling coefficients
  Masaaki Saitow         : Open-shell DLPNO-CCSD energy and density      
  Barbara Sandhoefer     : DKH picture change effects                    
  Yorick L. A. Schmerwitz: GMF and freeze-and-release deltaSCF, NEB S-IDPP initial path                    
  Kantharuban Sivalingam : CASSCF convergence/infrastructure, NEVPT2, NEVPT3, NEVPT4(SD), FIC-MRCI and CEPA variants
  Bernardo de Souza      : ESD, SOC TD-DFT                               
  Georgi L. Stoychev     : AutoAux, RI-MP2 NMR, DLPNO-MP2 response, X2C  
  Van Anh Tran           : RI-MP2 g-tensors                              
  Willem Van den Heuvel  : Paramagnetic NMR                              
  Zikuan Wang            : NOTCH, Electric field optimization            
  Frank Wennmohs         : Technical directorship and infrastructure     
  Hang Xu                : AUTO-CI-Response properties                   
                                                                         
[FACCTs GmbH]                                                            
  Markus Bursch, Nicolas Foglia, Miquel Garcia-Rates, Ingolf Harden, Hagen Neugebauer, Anastasios Papadopoulos, 
  Christoph Riplinger, Bernardo de Souza, Georgi L. Stoychev                                                    
                                                                 
  APM, various basis sets, CI-OPT, improved COSX, DLPNO-Multilevel,           
  DOCKER, DRACO, updates on ESD, Fragmentator, GOAT, IRC, LR-CPCM, L-BFGS, MBIS, meta-GGA TD-DFT gradient, ML-optimized integration grids, 
  MM, NACMEs, nearIR, NEB, NEB-TS, NL-DFT gradient (VV10), 2- and 3-layer-ONIOM, interface openCOSMO-RS, QMMM,   
  Crystal-QMMM, RESP, rigid body optimization, SF, symmetry and pop. for TD-DFT, various functionals, SOLVATOR                                   
                                                                         
[Other institutions]                                                     
  V. Asgeirsson          : NEB                                           
  Christoph Bannwarth    : sTDA-DFT, sTD-DFT, PBEh-3c, B97-3c, D3        
  Giovanni Bistoni       : ETS/NOCV, ADLD/ADEX, COVALED                  
  Martin Brehm           : Molecular dynamics                            
  Ronald Cardenas        : ETS/NOCV                                      
  Martina Colucci        : COVALED                                       
  Sebastian Ehlert       : rSCAN, r2SCAN, r2SCAN-3c, D4, dhf basis sets  
  Marvin Friede          : D4 for Fr, Ra, Ac-Lr                          
  Lars Goerigk           : TD-DFT with DH, B97 family of functionals     
  Stefan Grimme          : VdW corrections, initial TS optimization, DFT functionals, gCP, sTDA/sTD-DF 
  Waldemar Hujo          : DFT-NL                                        
  H. Jonsson             : NEB                                           
  Holger Kruse           : gCP                                           
  Marcel Mueller         : wB97X-3c, vDZP basis set                      
  Hagen Neugebauer       : wr2SCAN, Native XTB                           
  Gianluca Regni         : ADLD/ADEX                                     
  Tobias Risthaus        : pre 6.0 range-separated hybrid DFT and stability analysis
  Lukas Wittmann         : regularized MP2, r2SCAN double-hybrids, wr2SCAN        
                                                                         
We gratefully acknowledge several colleagues who have allowed us to      
interface, adapt or use parts of their codes:                            
  Ed Valeev, F. Pavosevic, A. Kumar             : LibInt (2-el integral package), F12 methods 
  Garnet Chan, S. Sharma, J. Yang, R. Olivares  : DMRG                   
  Ulf Ekstrom                                   : XCFun DFT Library      
  Mihaly Kallay                                 : mrcc  (arbitrary order and MRCC methods)
  Frank Weinhold                                : gennbo (NPA and NBO analysis)           
  Simon Mueller                                 : openCOSMO-RS                            
  Christopher J. Cramer and Donald G. Truhlar   : smd solvation model                     
  S Lehtola, MJT Oliveira, MAL Marques          : LibXC Library                           
  Liviu Ungur et al                             : ANISO software                          


 Your calculation uses the libint2 library for the computation of 2-el integrals
 For citations please refer to: http://libint.valeyev.net

 Your ORCA version has been built with support for libXC version: 7.0.0
 For citations please refer to: https://libxc.gitlab.io

 This ORCA versions uses:
   CBLAS   interface :  Fast vector & matrix operations
   LAPACKE interface :  Fast linear algebra routines
   SCALAPACK package :  Parallel linear algebra routines
   Shared memory     :  Shared parallel matrices
   BLAS/LAPACK       :  OpenBLAS 0.3.29  USE64BITINT DYNAMIC_ARCH NO_AFFINITY SkylakeX SINGLE_THREADED
        Core in use  :  SkylakeX
   Copyright (c) 2011-2014, The OpenBLAS Project


  ***********************************
  * Starting time: Thu Sep 18 19:23:34 2025
  * Host name:     computational-ch-1-genericvnf-vm-0
  * Process ID:    283632
  * Working dir.:  /home/ubuntu
  ***********************************

Your calculation utilizes the atom-pairwise dispersion correction
with the Becke-Johnson damping scheme (D3BJ)


Warning: RI is on but no J-basis has been assigned. Assigning Def2/J (nothing to worry about!)
================================================================================

----- Orbital basis set information -----
Your calculation utilizes the basis: def2-TZVP
   F. Weigend and R. Ahlrichs, Phys. Chem. Chem. Phys. 7, 3297 (2005).

----- AuxJ basis set information -----
Your calculation utilizes the auxiliary basis: def2/J
   H-Rn: F. Weigend, Phys. Chem. Chem. Phys. 8, 1057 (2006).
   Fr-Lr: K. Eichkorn, F. Weigend, O. Treutler, R. Ahlrichs; Theor. Chem. Acc. 97, 119 (1997).

================================================================================
                                        WARNINGS
                       Please study these warnings very carefully!
================================================================================


WARNING: Geometry Optimization
  ===> : Switching off AutoStart
         For restart on a previous wavefunction, please use MOREAD

================================================================================
                                       INPUT FILE
================================================================================
NAME = 20250918/APP_4mer/opt/APP_4mer.inp
|  1> ! B3LYP D3BJ def2-TZVP TightSCF Opt
|  2> 
|  3> %pal
|  4>   nprocs 24
|  5> end
|  6> 
|  7> * xyz 0 1
|  8> O     -3.9875083044    0.0553772574   -4.9116431456
|  9> P     -5.0347789318   -0.8205037293   -4.0756570123
| 10> H     -3.5435318942    0.6556846768   -4.2836401004
| 11> O     -6.2176524643    0.2139373204   -3.9385941594
| 12> O     -4.3057464250   -1.1865599943   -2.8092407873
| 13> P     -7.6262885260    0.0439403634   -3.1952195359
| 14> O     -8.4395561653    1.1496167755   -4.0191616067
| 15> O     -7.4831608059    0.4811420879   -1.7705199694
| 16> P     -9.4386958780    1.0024264267   -5.2287156516
| 17> O     -9.1430458679    2.3690301679   -6.0171921729
| 18> O    -10.8959164328    1.1288408895   -4.8538593630
| 19> H     -9.5563636226    3.0899048816   -5.5043943522
| 20> O     -5.4003048282   -2.0223789296   -4.9380018004
| 21> O     -8.1822086295   -1.3304042442   -3.5390117111
| 22> O     -9.1720751105   -0.1290308076   -6.2174355715
| 23> N     -4.0748176311   -3.5200710015   -3.2796939886
| 24> N     -7.7500601306   -2.1121299506   -5.7402502129
| 25> N    -11.7601687405   -0.1857597555   -6.6473421410
| 26> H     -4.0429555674   -2.6018390632   -2.7517919710
| 27> H     -3.1236757670   -3.7421750561   -3.5532997376
| 28> H     -4.5722697999   -4.1926559683   -2.7072544988
| 29> H     -4.6383707067   -3.2207732909   -4.1083396649
| 30> H     -8.0431559682   -2.0059773198   -4.7351852839
| 31> H     -8.1699154008   -1.2536771648   -6.1556159401
| 32> H     -8.0893075013   -2.9797768849   -6.1141166378
| 33> H     -6.7142272125   -2.0416064156   -5.6642007513
| 34> H    -10.7367734661   -0.3710142216   -6.7691756832
| 35> H    -11.7243720079    0.3869155116   -5.7546335862
| 36> H    -12.2856748237   -1.0327072256   -6.4630229081
| 37> H    -12.1009901020    0.4312597294   -7.3781726441
| 38> **                         ****END OF INPUT****
================================================================================

                       *****************************
                       * Geometry Optimization Run *
                       *****************************

Geometry optimization settings:
Update method            Update   .... BFGS
Choice of coordinates    CoordSys .... (2022) Redundant Internals
Initial Hessian          InHess   .... Almloef's Model
Max. no of cycles        MaxIter  .... 90

Convergence Tolerances:
Energy Change            TolE     ....  5.0000e-06 Eh
Max. Gradient            TolMAXG  ....  3.0000e-04 Eh/bohr
RMS Gradient             TolRMSG  ....  1.0000e-04 Eh/bohr
Max. Displacement        TolMAXD  ....  4.0000e-03 bohr
RMS Displacement         TolRMSD  ....  2.0000e-03 bohr
Strict Convergence                .... False

------------------------------------------------------------------------------
                        ORCA OPTIMIZATION COORDINATE SETUP
------------------------------------------------------------------------------

The optimization will be done in redundant internal coordinates (2022)
Making redundant internal coordinates   ...  (2022 redundants) done
Evaluating the initial hessian          ...  (Almloef) done
Evaluating the coordinates              ...  done
Calculating the B-matrix                .... done
Calculating the G-matrix                .... done
The number of degrees of freedom        ....  166

    -----------------------------------------------------------------
                    Redundant Internal Coordinates


    -----------------------------------------------------------------
         Definition                    Initial Value    Approx d2E/dq
    -----------------------------------------------------------------
      1. B(P   1,O   0)                  1.6009         0.866811   
      2. B(H   2,O   0)                  0.9756         0.490925   
      3. B(O   3,P   1)                  1.5774         0.945059   
      4. B(O   4,P   1)                  1.5064         1.226399   
      5. B(P   5,O   3)                  1.6018         0.863888   
      6. B(O   6,P   5)                  1.6009         0.866821   
      7. B(O   7,P   5)                  1.4971         1.268965   
      8. B(P   8,O   6)                  1.5757         0.950667   
      9. B(O   9,P   8)                  1.6052         0.853120   
     10. B(O  10,P   8)                  1.5100         1.210530   
     11. B(H  11,O   9)                  0.9764         0.489466   
     12. B(O  12,P   1)                  1.5237         1.150833   
     13. B(O  13,P   5)                  1.5219         1.158757   
     14. B(O  14,P   8)                  1.5261         1.141037   
     15. B(H  18,N  15)                  1.0596         0.360571   
     16. B(H  18,O   4)                  1.4406         0.088956   
     17. B(H  18,P   1)                  2.4309         0.010000   
     18. B(H  19,N  15)                  1.0143         0.425883   
     19. B(H  20,N  15)                  1.0137         0.426922   
     20. B(H  21,N  15)                  1.0459         0.379299   
     21. B(H  21,P   1)                  2.4330         0.010000   
     22. B(H  21,O  12)                  1.6447         0.042031   
     23. B(H  22,O  13)                  1.3808         0.110824   
     24. B(H  22,N  16)                  1.0523         0.370436   
     25. B(H  22,P   5)                  2.5976         0.010000   
     26. B(H  23,O  14)                  1.5076         0.069541   
     27. B(H  23,N  16)                  1.0420         0.384727   
     28. B(H  24,N  16)                  1.0038         0.442627   
     29. B(H  25,O  12)                  1.5014         0.071160   
     30. B(H  25,N  16)                  1.0410         0.386115   
     31. B(H  25,P   1)                  2.6144         0.010000   
     32. B(H  26,O  14)                  1.6767         0.037372   
     33. B(H  26,N  17)                  1.0471         0.377522   
     34. B(H  26,P   8)                  2.4381         0.010000   
     35. B(H  27,O  10)                  1.4311         0.092104   
     36. B(H  27,N  17)                  1.0612         0.358503   
     37. B(H  27,P   8)                  2.4248         0.010000   
     38. B(H  28,N  17)                  1.0136         0.426973   
     39. B(H  29,N  17)                  1.0154         0.424248   
     40. A(P   1,O   0,H   2)          107.3498         0.414260   
     41. A(O   4,P   1,O  12)          113.5908         0.626874   
     42. A(O   0,P   1,O  12)          107.0347         0.586245   
     43. A(O   0,P   1,O   4)          104.7951         0.593454   
     44. A(O   3,P   1,O   4)          116.6943         0.603419   
     45. A(O   3,P   1,O  12)          112.7409         0.596067   
     46. A(O   0,P   1,O   3)          100.2036         0.564561   
     47. A(P   1,O   3,P   5)          129.0652         0.564198   
     48. A(P   1,O   4,H  18)          111.1327         0.328021   
     49. A(O   3,P   5,O   7)          109.0607         0.596976   
     50. A(O   6,P   5,O  13)          108.7767         0.587019   
     51. A(O   3,P   5,O  13)          108.1944         0.586637   
     52. A(O   3,P   5,O   6)           97.7352         0.554994   
     53. A(O   7,P   5,O  13)          120.9049         0.631887   
     54. A(O   6,P   5,O   7)          109.6732         0.597366   
     55. A(P   5,O   6,P   8)          130.7438         0.565200   
     56. A(O   6,P   8,O  14)          117.1166         0.595765   
     57. A(O   9,P   8,O  14)          106.3076         0.583498   
     58. A(O  10,P   8,O  14)          113.0494         0.624254   
     59. A(O   9,P   8,O  10)          103.2037         0.590160   
     60. A(O   6,P   8,O  10)          114.4277         0.602592   
     61. A(O   6,P   8,O   9)          100.4127         0.563485   
     62. A(P   8,O   9,H  11)          107.0137         0.412872   
     63. A(P   8,O  10,H  27)          111.0388         0.329200   
     64. A(H  21,O  12,H  25)          129.7985         0.173004   
     65. A(P   1,O  12,H  25)          119.5893         0.312998   
     66. A(P   1,O  12,H  21)          100.2597         0.287833   
     67. A(P   5,O  13,H  22)          126.9239         0.337007   
     68. A(H  23,O  14,H  26)          121.7463         0.170375   
     69. A(P   8,O  14,H  26)           99.0422         0.282241   
     70. A(P   8,O  14,H  23)          129.9894         0.311403   
     71. A(H  20,N  15,H  21)          111.8935         0.296330   
     72. A(H  19,N  15,H  21)          110.7456         0.296216   
     73. A(H  18,N  15,H  21)           99.3775         0.288553   
     74. A(H  19,N  15,H  20)          117.8538         0.301838   
     75. A(H  18,N  15,H  20)          107.9621         0.293968   
     76. A(H  18,N  15,H  19)          107.2134         0.293855   
     77. A(H  23,N  16,H  24)          115.3060         0.298706   
     78. A(H  22,N  16,H  24)          110.4130         0.296917   
     79. A(H  22,N  16,H  23)          100.6843         0.290423   
     80. A(H  24,N  16,H  25)          114.9631         0.298877   
     81. A(H  23,N  16,H  25)          111.9773         0.292322   
     82. A(H  22,N  16,H  25)          101.5683         0.290587   
     83. A(H  28,N  17,H  29)          117.6851         0.301659   
     84. A(H  27,N  17,H  29)          106.7904         0.293410   
     85. A(H  26,N  17,H  29)          110.5982         0.295816   
     86. A(H  27,N  17,H  28)          108.3864         0.293706   
     87. A(H  26,N  17,H  28)          112.3348         0.296115   
     88. A(H  26,N  17,H  27)           99.2289         0.288082   
     89. A(O   4,H  18,N  15)          145.6855         0.232718   
     90. A(O  12,H  21,N  15)          149.0730         0.211685   
     91. A(O  13,H  22,N  16)          154.7993         0.240974   
     92. A(O  14,H  23,N  16)          153.9947         0.226937   
     93. A(O  12,H  25,N  16)          155.0933         0.227771   
     94. A(O  14,H  26,N  17)          148.0199         0.208339   
     95. A(O  10,H  27,N  17)          145.9708         0.233665   
     96. D(O  12,P   1,O   0,H   2)   -162.7176         0.016003   
     97. D(O   4,P   1,O   0,H   2)    -41.7974         0.016003   
     98. D(O   3,P   1,O   0,H   2)     79.5108         0.016003   
     99. D(P   5,O   3,P   1,O   0)   -179.1744         0.018966   
    100. D(P   5,O   3,P   1,O   4)    -66.7833         0.018966   
    101. D(P   5,O   3,P   1,O  12)     67.3604         0.018966   
    102. D(H  18,O   4,P   1,O   0)   -112.6248         0.032264   
    103. D(H  18,O   4,P   1,O  12)      3.8605         0.032264   
    104. D(H  18,O   4,P   1,O   3)    137.6270         0.032264   
    105. D(O   7,P   5,O   3,P   1)     89.7428         0.013976   
    106. D(O   6,P   5,O   3,P   1)   -156.2793         0.013976   
    107. D(O  13,P   5,O   3,P   1)    -43.5376         0.013976   
    108. D(P   8,O   6,P   5,O  13)    -12.8080         0.014067   
    109. D(P   8,O   6,P   5,O   7)   -147.0479         0.014067   
    110. D(P   8,O   6,P   5,O   3)     99.4638         0.014067   
    111. D(O  14,P   8,O   6,P   5)    -33.1078         0.018042   
    112. D(O  10,P   8,O   6,P   5)    102.5941         0.018042   
    113. D(O   9,P   8,O   6,P   5)   -147.6181         0.018042   
    114. D(H  11,O   9,P   8,O  14)    163.3772         0.014606   
    115. D(H  11,O   9,P   8,O  10)     44.1907         0.014606   
    116. D(H  11,O   9,P   8,O   6)    -74.1686         0.014606   
    117. D(H  27,O  10,P   8,O  14)    -14.4731         0.029458   
    118. D(H  27,O  10,P   8,O   9)     99.9372         0.029458   
    119. D(H  27,O  10,P   8,O   6)   -151.9758         0.029458   
    120. D(H  21,O  12,P   1,O   4)     -6.1313         0.029931   
    121. D(H  21,O  12,P   1,O   3)   -141.7383         0.029931   
    122. D(H  21,O  12,P   1,O   0)    109.0344         0.029931   
    123. D(H  25,O  12,P   1,O   4)    142.1704         0.029931   
    124. D(H  25,O  12,P   1,O   3)      6.5635         0.029931   
    125. D(H  25,O  12,P   1,O   0)   -102.6638         0.029931   
    126. D(H  22,O  13,P   5,O   3)    -34.4519         0.025050   
    127. D(H  22,O  13,P   5,O   7)   -161.1347         0.025050   
    128. D(H  22,O  13,P   5,O   6)     70.7003         0.025050   
    129. D(H  26,O  14,P   8,O   9)    -95.3869         0.027779   
    130. D(H  26,O  14,P   8,O   6)    153.4276         0.027779   
    131. D(H  23,O  14,P   8,O  10)   -128.8427         0.027779   
    132. D(H  23,O  14,P   8,O   9)    118.6302         0.027779   
    133. D(H  26,O  14,P   8,O  10)     17.1402         0.027779   
    134. D(H  23,O  14,P   8,O   6)      7.4447         0.027779   
    135. D(O   4,H  18,N  15,H  21)    -11.2000         0.165790   
    136. D(O   4,H  18,N  15,H  20)   -127.9973         0.165790   
    137. D(O   4,H  18,N  15,H  19)    104.0783         0.165790   
    138. D(N  15,H  18,O   4,P   1)      8.0978         0.010000   
    139. D(O  12,H  21,N  15,H  20)    117.6257         0.187964   
    140. D(O  12,H  21,N  15,H  19)   -108.6919         0.187964   
    141. D(O  12,H  21,N  15,H  18)      3.8457         0.187964   
    142. D(N  15,H  21,O  12,H  25)   -139.9017         0.010000   
    143. D(N  15,H  21,O  12,P   1)      3.6058         0.010000   
    144. D(O  13,H  22,N  16,H  25)     64.7900         0.177245   
    145. D(O  13,H  22,N  16,H  24)   -172.8100         0.177245   
    146. D(O  13,H  22,N  16,H  23)    -50.5099         0.177245   
    147. D(N  16,H  22,O  13,P   5)     -6.1100         0.010000   
    148. D(O  14,H  23,N  16,H  25)   -133.0443         0.178479   
    149. D(O  14,H  23,N  16,H  24)     92.9898         0.178479   
    150. D(O  14,H  23,N  16,H  22)    -25.8145         0.178479   
    151. D(N  16,H  23,O  14,H  26)    -76.8870         0.010000   
    152. D(N  16,H  23,O  14,P   8)     62.5947         0.010000   
    153. D(O  12,H  25,N  16,H  24)   -105.8364         0.196488   
    154. D(O  12,H  25,N  16,H  23)    120.0314         0.196488   
    155. D(O  12,H  25,N  16,H  22)     13.3723         0.196488   
    156. D(N  16,H  25,O  12,H  21)     65.9027         0.010000   
    157. D(N  16,H  25,O  12,P   1)    -71.8004         0.010000   
    158. D(N  17,H  26,O  14,P   8)    -12.5171         0.010000   
    159. D(O  14,H  26,N  17,H  29)    109.3141         0.185782   
    160. D(O  14,H  26,N  17,H  28)   -116.9759         0.185782   
    161. D(O  14,H  26,N  17,H  27)     -2.6308         0.185782   
    162. D(N  17,H  26,O  14,H  23)    137.2157         0.010000   
    163. D(O  10,H  27,N  17,H  29)    -99.9854         0.163451   
    164. D(O  10,H  27,N  17,H  28)    132.3019         0.163451   
    165. D(O  10,H  27,N  17,H  26)     14.9328         0.163451   
    166. D(N  17,H  27,O  10,P   8)     -6.4699         0.010000   
    -----------------------------------------------------------------

Number of atoms                         .... 30
Number of degrees of freedom            .... 166


         *************************************************************
         *                GEOMETRY OPTIMIZATION CYCLE   1            *
         *************************************************************
---------------------------------
CARTESIAN COORDINATES (ANGSTROEM)
---------------------------------
  O     -3.987508    0.055377   -4.911643
  P     -5.034779   -0.820504   -4.075657
  H     -3.543532    0.655685   -4.283640
  O     -6.217652    0.213937   -3.938594
  O     -4.305746   -1.186560   -2.809241
  P     -7.626289    0.043940   -3.195220
  O     -8.439556    1.149617   -4.019162
  O     -7.483161    0.481142   -1.770520
  P     -9.438696    1.002426   -5.228716
  O     -9.143046    2.369030   -6.017192
  O    -10.895916    1.128841   -4.853859
  H     -9.556364    3.089905   -5.504394
  O     -5.400305   -2.022379   -4.938002
  O     -8.182209   -1.330404   -3.539012
  O     -9.172075   -0.129031   -6.217436
  N     -4.074818   -3.520071   -3.279694
  N     -7.750060   -2.112130   -5.740250
  N    -11.760169   -0.185760   -6.647342
  H     -4.042956   -2.601839   -2.751792
  H     -3.123676   -3.742175   -3.553300
  H     -4.572270   -4.192656   -2.707254
  H     -4.638371   -3.220773   -4.108340
  H     -8.043156   -2.005977   -4.735185
  H     -8.169915   -1.253677   -6.155616
  H     -8.089308   -2.979777   -6.114117
  H     -6.714227   -2.041606   -5.664201
  H    -10.736773   -0.371014   -6.769176
  H    -11.724372    0.386916   -5.754634
  H    -12.285675   -1.032707   -6.463023
  H    -12.100990    0.431260   -7.378173

----------------------------
CARTESIAN COORDINATES (A.U.)
----------------------------
  NO LB      ZA    FRAG     MASS         X           Y           Z
   0 O     8.0000    0    15.999   -7.535299    0.104648   -9.281660
   1 P    15.0000    0    30.974   -9.514353   -1.550527   -7.701876
   2 H     1.0000    0     1.008   -6.696305    1.239064   -8.094907
   3 O     8.0000    0    15.999  -11.749660    0.404283   -7.442864
   4 O     8.0000    0    15.999   -8.136682   -2.242273   -5.308696
   5 P    15.0000    0    30.974  -14.411597    0.083035   -6.038090
   6 O     8.0000    0    15.999  -15.948450    2.172461   -7.595115
   7 O     8.0000    0    15.999  -14.141125    0.909227   -3.345798
   8 P    15.0000    0    30.974  -17.836550    1.894311   -9.880841
   9 O     8.0000    0    15.999  -17.277853    4.476818  -11.370845
  10 O     8.0000    0    15.999  -20.590298    2.133200   -9.172465
  11 H     1.0000    0     1.008  -18.058910    5.839074  -10.401798
  12 O     8.0000    0    15.999  -10.205097   -3.821742   -9.331471
  13 O     8.0000    0    15.999  -15.462133   -2.514100   -6.687763
  14 O     8.0000    0    15.999  -17.332710   -0.243833  -11.749250
  15 N     7.0000    0    14.007   -7.700289   -6.651970   -6.197723
  16 N     7.0000    0    14.007  -14.645491   -3.991347  -10.847501
  17 N     7.0000    0    14.007  -22.223498   -0.351035  -12.561656
  18 H     1.0000    0     1.008   -7.640079   -4.916763   -5.200133
  19 H     1.0000    0     1.008   -5.902892   -7.071686   -6.714763
  20 H     1.0000    0     1.008   -8.640338   -7.922972   -5.115970
  21 H     1.0000    0     1.008   -8.765250   -6.086379   -7.763637
  22 H     1.0000    0     1.008  -15.199362   -3.790748   -8.948203
  23 H     1.0000    0     1.008  -15.438903   -2.369107  -11.632428
  24 H     1.0000    0     1.008  -15.286576   -5.630962  -11.554006
  25 H     1.0000    0     1.008  -12.688051   -3.858077  -10.703788
  26 H     1.0000    0     1.008  -20.289561   -0.701115  -12.791888
  27 H     1.0000    0     1.008  -22.155852    0.731164  -10.874681
  28 H     1.0000    0     1.008  -23.216561   -1.951534  -12.213343
  29 H     1.0000    0     1.008  -22.867557    0.814963  -13.942726

--------------------------------
INTERNAL COORDINATES (ANGSTROEM)
--------------------------------
 O      0   0   0     0.000000000000     0.00000000     0.00000000
 P      1   0   0     1.600879784664     0.00000000     0.00000000
 H      1   2   0     0.975639213737   107.34977390     0.00000000
 O      2   1   3     1.577353576355   100.20364169    79.51079597
 O      2   1   3     1.506418149141   104.79514048   318.20261902
 P      4   2   1     1.601799098069   129.06517126   180.82562785
 O      6   4   2     1.600876359199    97.73518547   203.72074757
 O      6   4   2     1.497130504316   109.06070516    89.74278680
 P      7   6   4     1.575743047520   130.74380991    99.46380902
 O      9   7   6     1.605213362321   100.41272693   212.38189499
 O      9   7   6     1.509963442882   114.42765347   102.59405838
 H     10   9   7     0.976449447804   107.01366177   285.83135197
 O      2   1   3     1.523729540174   107.03466726   197.28242378
 O      6   4   2     1.521861794528   108.19438458   316.46242761
 O      9   7   6     1.526056744266   117.11664094   326.89215958
 N      5   2   1     2.391637084340    96.80280092   249.40572952
 N     14   6   4     2.375562743216   116.10682219   324.26711689
 N     11   9   7     2.385725755862    96.71014611   206.40577761
 H     16   5   2     1.059644102425    19.85063166   187.60371711
 H     16   5   2     1.014327936419   110.93121990   104.86521932
 H     16   5   2     1.013664721341   119.26975048   246.84701454
 H     16   5   2     1.045860815520    79.89841996   356.37910279
 H     17  14   6     1.052297041025    14.32896575   174.56266379
 H     17  14   6     1.041992476314    91.43072923   305.22241549
 H     17  14   6     1.003830705246   124.61488704   182.75695551
 H     17  14   6     1.041012451327    95.22249884    57.44458839
 H     18  11   9     1.047139206065    80.26482328     8.87668257
 H     18  11   9     1.061210125953    19.61522873   173.92127236
 H     18  11   9     1.013632201642   120.76545243   119.15529101
 H     18  11   9     1.015374546393   109.13752515   260.31661910

---------------------------
INTERNAL COORDINATES (A.U.)
---------------------------
 O      0   0   0     0.000000000000     0.00000000     0.00000000
 P      1   0   0     3.025224366347     0.00000000     0.00000000
 H      1   2   0     1.843690919477   107.34977390     0.00000000
 O      2   1   3     2.980766275671   100.20364169    79.51079597
 O      2   1   3     2.846717745044   104.79514048   318.20261902
 P      4   2   1     3.026961616913   129.06517126   180.82562785
 O      6   4   2     3.025217893154    97.73518547   203.72074757
 O      6   4   2     2.829166639896   109.06070516    89.74278680
 P      7   6   4     2.977722817244   130.74380991    99.46380902
 O      9   7   6     3.033413641298   100.41272693   212.38189499
 O      9   7   6     2.853417379280   114.42765347   102.59405838
 H     10   9   7     1.845222039968   107.01366177   285.83135197
 O      2   1   3     2.879431533094   107.03466726   197.28242378
 O      6   4   2     2.875902005335   108.19438458   316.46242761
 O      9   7   6     2.883829311486   117.11664094   326.89215958
 N      5   2   1     4.519539101132    96.80280092   249.40572952
 N     14   6   4     4.489162998624   116.10682219   324.26711689
 N     11   9   7     4.508368309221    96.71014611   206.40577761
 H     16   5   2     2.002437153008    19.85063166   187.60371711
 H     16   5   2     1.916802009817   110.93121990   104.86521932
 H     16   5   2     1.915548714952   119.26975048   246.84701454
 H     16   5   2     1.976390515532    79.89841996   356.37910279
 H     17  14   6     1.988553219073    14.32896575   174.56266379
 H     17  14   6     1.969080413840    91.43072923   305.22241549
 H     17  14   6     1.896965117736   124.61488704   182.75695551
 H     17  14   6     1.967228435010    95.22249884    57.44458839
 H     18  11   9     1.978806323555    80.26482328     8.87668257
 H     18  11   9     2.005396508596    19.61522873   173.92127236
 H     18  11   9     1.915487261627   120.76545243   119.15529101
 H     18  11   9     1.918779816037   109.13752515   260.31661910

---------------------
BASIS SET INFORMATION
---------------------
There are 4 groups of distinct atoms

 Group   1 Type O   : 11s6p2d1f contracted to 5s3p2d1f pattern {62111/411/11/1}
 Group   2 Type P   : 14s9p3d1f contracted to 5s5p2d1f pattern {73211/51111/21/1}
 Group   3 Type H   : 5s1p contracted to 3s1p pattern {311/1}
 Group   4 Type N   : 11s6p2d1f contracted to 5s3p2d1f pattern {62111/411/11/1}

Atom   0O    basis set group =>   1
Atom   1P    basis set group =>   2
Atom   2H    basis set group =>   3
Atom   3O    basis set group =>   1
Atom   4O    basis set group =>   1
Atom   5P    basis set group =>   2
Atom   6O    basis set group =>   1
Atom   7O    basis set group =>   1
Atom   8P    basis set group =>   2
Atom   9O    basis set group =>   1
Atom  10O    basis set group =>   1
Atom  11H    basis set group =>   3
Atom  12O    basis set group =>   1
Atom  13O    basis set group =>   1
Atom  14O    basis set group =>   1
Atom  15N    basis set group =>   4
Atom  16N    basis set group =>   4
Atom  17N    basis set group =>   4
Atom  18H    basis set group =>   3
Atom  19H    basis set group =>   3
Atom  20H    basis set group =>   3
Atom  21H    basis set group =>   3
Atom  22H    basis set group =>   3
Atom  23H    basis set group =>   3
Atom  24H    basis set group =>   3
Atom  25H    basis set group =>   3
Atom  26H    basis set group =>   3
Atom  27H    basis set group =>   3
Atom  28H    basis set group =>   3
Atom  29H    basis set group =>   3
---------------------------------
AUXILIARY/J BASIS SET INFORMATION
---------------------------------
There are 4 groups of distinct atoms

 Group   1 Type O   : 12s5p4d2f1g contracted to 6s4p3d1f1g pattern {711111/2111/211/2/1}
 Group   2 Type P   : 14s5p5d2f1g contracted to 8s4p3d1f1g pattern {71111111/2111/311/2/1}
 Group   3 Type H   : 5s2p1d contracted to 3s1p1d pattern {311/2/1}
 Group   4 Type N   : 12s5p4d2f1g contracted to 6s4p3d1f1g pattern {711111/2111/211/2/1}

Atom   0O    basis set group =>   1
Atom   1P    basis set group =>   2
Atom   2H    basis set group =>   3
Atom   3O    basis set group =>   1
Atom   4O    basis set group =>   1
Atom   5P    basis set group =>   2
Atom   6O    basis set group =>   1
Atom   7O    basis set group =>   1
Atom   8P    basis set group =>   2
Atom   9O    basis set group =>   1
Atom  10O    basis set group =>   1
Atom  11H    basis set group =>   3
Atom  12O    basis set group =>   1
Atom  13O    basis set group =>   1
Atom  14O    basis set group =>   1
Atom  15N    basis set group =>   4
Atom  16N    basis set group =>   4
Atom  17N    basis set group =>   4
Atom  18H    basis set group =>   3
Atom  19H    basis set group =>   3
Atom  20H    basis set group =>   3
Atom  21H    basis set group =>   3
Atom  22H    basis set group =>   3
Atom  23H    basis set group =>   3
Atom  24H    basis set group =>   3
Atom  25H    basis set group =>   3
Atom  26H    basis set group =>   3
Atom  27H    basis set group =>   3
Atom  28H    basis set group =>   3
Atom  29H    basis set group =>   3


           ************************************************************
           *        Program running with 24 parallel MPI-processes    *
           *              working on a common directory               *
           ************************************************************
------------------------------------------------------------------------------
                             ORCA STARTUP CALCULATIONS
                           -- RI-GTO INTEGRALS CHOSEN --
------------------------------------------------------------------------------
------------------------------------------------------------------------------
                   ___                                                        
                  /   \      - P O W E R E D   B Y -                         
                 /     \                                                     
                 |  |  |   _    _      __       _____    __    __             
                 |  |  |  | |  | |    /  \     |  _  \  |  |  /  |          
                  \  \/   | |  | |   /    \    | | | |  |  | /  /          
                 / \  \   | |__| |  /  /\  \   | |_| |  |  |/  /          
                |  |  |   |  __  | /  /__\  \  |    /   |      \           
                |  |  |   | |  | | |   __   |  |    \   |  |\   \          
                \     /   | |  | | |  |  |  |  | |\  \  |  | \   \       
                 \___/    |_|  |_| |__|  |__|  |_| \__\ |__|  \__/        
                                                                              
                      - O R C A' S   B I G   F R I E N D -                    
                                      &                                       
                       - I N T E G R A L  F E E D E R -                       
                                                                              
 v1 FN, 2020, v2 2021, v3 2022-2024                                           
------------------------------------------------------------------------------


----------------------
SHARK INTEGRAL PACKAGE
----------------------

Number of atoms                             ...     30
Number of basis functions                   ...    598
Number of shells                            ...    238
Maximum angular momentum                    ...      3
Integral batch strategy                     ... SHARK/LIBINT Hybrid
RI-J (if used) integral strategy            ... SPLIT-RIJ (Revised 2003 algorithm where possible)
Printlevel                                  ...      1
Contraction scheme used                     ... SEGMENTED contraction
Prescreening option                         ... SCHWARTZ
   Thresh                                   ... 2.500e-11
   Tcut                                     ... 2.500e-12
   Tpresel                                  ... 2.500e-12 
Coulomb Range Separation                    ... NOT USED
Exchange Range Separation                   ... NOT USED
Multipole approximations                    ... NOT USED
Finite Nucleus Model                        ... NOT USED
CABS basis                                  ... NOT available
Auxiliary Coulomb fitting basis             ... AVAILABLE
   # of basis functions in Aux-J            ...    944
   # of shells in Aux-J                     ...    316
   Maximum angular momentum in Aux-J        ...      4
Auxiliary J/K fitting basis                 ... NOT available
Auxiliary Correlation fitting basis         ... NOT available
Auxiliary 'external' fitting basis          ... NOT available

Checking pre-screening integrals            ... done (  0.0 sec) Dimension = 238
   => SHARK Basis and OBASIS are compatible. Storing Pre-screening
Shell pair information
Shell pair cut-off parameter TPreSel        ...   2.5e-12
Total number of shell pairs                 ...     28441
Shell pairs after pre-screening             ...     19610
Total number of primitive shell pairs       ...     90961
Primitive shell pairs kept                  ...     41082
          la=0 lb=0:   5004 shell pairs
          la=1 lb=0:   5874 shell pairs
          la=1 lb=1:   1789 shell pairs
          la=2 lb=0:   2570 shell pairs
          la=2 lb=1:   1568 shell pairs
          la=2 lb=2:    371 shell pairs
          la=3 lb=0:   1263 shell pairs
          la=3 lb=1:    751 shell pairs
          la=3 lb=2:    335 shell pairs
          la=3 lb=3:     85 shell pairs

Checking whether 4 symmetric matrices of dimension 598 fit in memory
:Max Core in MB      =   4096.00
 MB in use           =     27.48
 MB left             =   4068.52
 MB needed           =      5.47
 Data fit in memory  = YES
Calculating RI/J V-Matrix + Cholesky decomp.... done (  0.1 sec)
Calculating Nuclear repulsion               ... done (  0.0 sec) ENN=   1983.042846717869 Eh

Diagonalization of the overlap matrix:
Smallest eigenvalue                        ... 4.766e-04
Time for diagonalization                   ...    0.054 sec
Threshold for overlap eigenvalues          ... 1.000e-07
Number of eigenvalues below threshold      ... 0
Time for construction of square roots      ...    0.030 sec
Total time needed                          ...    0.094 sec

-------------------
DFT GRID GENERATION
-------------------

General Integration Accuracy     IntAcc      ... 4.388
Radial Grid Type                 RadialGrid  ... OptM3 with GC (2021)
Angular Grid (max. ang.)         AngularGrid ... 4 (Lebedev-302)
Angular grid pruning method      GridPruning ... 4 (adaptive)
Weight generation scheme         WeightScheme... mBecke (2022)
Basis function cutoff            BFCut       ... 1.0000e-11
Integration weight cutoff        WCut        ... 1.0000e-14
Partially contracted basis set               ... off
Rotationally invariant grid construction     ... off
Angular grids for H and He will be reduced by one unit

Total number of grid points                  ...   145127
Total number of batches                      ...     2285
Average number of points per batch           ...       63
Average number of grid points per atom       ...     4838

--------------------
COSX GRID GENERATION
--------------------

GRIDX 1
-------
General Integration Accuracy     IntAcc      ... 3.816
Radial Grid Type                 RadialGrid  ... OptM3 with GC (2021)
Angular Grid (max. ang.)         AngularGrid ... 1 (Lebedev-50)
Angular grid pruning method      GridPruning ... 4 (adaptive)
Weight generation scheme         WeightScheme... mBecke (2022)
Basis function cutoff            BFCut       ... 1.0000e-11
Integration weight cutoff        WCut        ... 1.0000e-14
Partially contracted basis set               ... on
Rotationally invariant grid construction     ... off
Angular grids for H and He will be reduced by one unit

Total number of grid points                  ...    21460
Total number of batches                      ...      184
Average number of points per batch           ...      116
Average number of grid points per atom       ...      715
UseSFitting                                  ... on

GRIDX 2
-------
General Integration Accuracy     IntAcc      ... 4.020
Radial Grid Type                 RadialGrid  ... OptM3 with GC (2021)
Angular Grid (max. ang.)         AngularGrid ... 2 (Lebedev-110)
Angular grid pruning method      GridPruning ... 4 (adaptive)
Weight generation scheme         WeightScheme... mBecke (2022)
Basis function cutoff            BFCut       ... 1.0000e-11
Integration weight cutoff        WCut        ... 1.0000e-14
Partially contracted basis set               ... on
Rotationally invariant grid construction     ... off
Angular grids for H and He will be reduced by one unit

Total number of grid points                  ...    39677
Total number of batches                      ...      324
Average number of points per batch           ...      122
Average number of grid points per atom       ...     1323
UseSFitting                                  ... on

GRIDX 3
-------
General Integration Accuracy     IntAcc      ... 4.338
Radial Grid Type                 RadialGrid  ... OptM3 with GC (2021)
Angular Grid (max. ang.)         AngularGrid ... 3 (Lebedev-194)
Angular grid pruning method      GridPruning ... 4 (adaptive)
Weight generation scheme         WeightScheme... mBecke (2022)
Basis function cutoff            BFCut       ... 1.0000e-11
Integration weight cutoff        WCut        ... 1.0000e-14
Partially contracted basis set               ... on
Rotationally invariant grid construction     ... off
Angular grids for H and He will be reduced by one unit

Total number of grid points                  ...    88420
Total number of batches                      ...      705
Average number of points per batch           ...      125
Average number of grid points per atom       ...     2947
UseSFitting                                  ... on
Grids setup in   2.7 sec
Initializing property integral containers    ... done (  0.0 sec)

SHARK setup successfully completed in   4.1 seconds

Maximum memory used throughout the entire STARTUP-calculation: 54.1 MB


           ************************************************************
           *        Program running with 24 parallel MPI-processes    *
           *              working on a common directory               *
           ************************************************************
-------------------------------------------------------------------------------
                                 ORCA GUESS
                   Start orbitals & Density for SCF / CASSCF
-------------------------------------------------------------------------------

------------
SCF SETTINGS
------------
Hamiltonian:
 Density Functional     Method          .... DFT(GTOs)
 Exchange Functional    Exchange        .... B88
   X-Alpha parameter    XAlpha          ....  0.666667
   Becke's b parameter  XBeta           ....  0.004200
 Correlation Functional Correlation     .... LYP
 LDA part of GGA corr.  LDAOpt          .... VWN-5
 Gradients option       PostSCFGGA      .... off
 Hybrid DFT is turned on
   Fraction HF Exchange ScalHFX         ....  0.200000
   Scaling of DF-GGA-X  ScalDFX         ....  0.720000
   Scaling of DF-GGA-C  ScalDFC         ....  0.810000
   Scaling of DF-LDA-C  ScalLDAC        ....  1.000000
   Perturbative correction              ....  0.000000
   NL short-range parameter             ....  4.800000
 RI-approximation to the Coulomb term is turned on
   Number of AuxJ basis functions       .... 944
   RIJ-COSX (HFX calculated with COS-X)).... on


General Settings:
 Integral files         IntName         .... 20250918/APP_4mer/opt/APP_4mer
 Hartree-Fock type      HFTyp           .... RHF
 Total Charge           Charge          ....    0
 Multiplicity           Mult            ....    1
 Number of Electrons    NEL             ....  160
 Basis Dimension        Dim             ....  598
 Nuclear Repulsion      ENuc            ....   1983.0428467179 Eh

Convergence Acceleration:
 AO-DIIS                CNVDIIS         .... on
   Start iteration      DIISMaxIt       ....    12
   Startup error        DIISStart       ....  0.200000
   # of expansion vecs  DIISMaxEq       ....     5
   Bias factor          DIISBfac        ....   1.050
   Max. coefficient     DIISMaxC        ....  10.000
 MO-DIIS                CNVKDIIS        .... off
 Trust-Rad. Augm. Hess. CNVTRAH         .... auto
   Auto Start mean grad. ratio tolernc. ....  1.125000
   Auto Start start iteration           ....    50
   Auto Start num. interpolation iter.  ....    10
   Max. Number of Micro iterations      ....    24
   Max. Number of Macro iterations      .... Maxiter - #DIIS iter
   Number of Davidson start vectors     ....     2
   Converg. threshold    (grad. norm)   ....   1.000e-05
   Grad. Scal. Fac. for Micro threshold ....   0.100
   Minimum threshold for Micro iter.    ....   1.000e-02
   NR start threshold (gradient norm)   ....   1.000e-04
   Initial trust radius                 ....   0.400
   Minimum AH scaling param. (alpha)    ....   1.000
   Maximum AH scaling param. (alpha)    .... 1000.000
   Quad. conv. algorithm                .... NR
   White noise on init. David. guess    .... on
   Maximum white noise                  ....   0.010
   Pseudo random numbers                .... off
   Inactive MOs                         .... canonical
   Orbital update algorithm             .... Taylor
   Preconditioner                       .... Diag
   Full preconditioner red. dimension   ....   250
 SOSCF                 CNVSOSCF           .... on
   Start iteration     SOSCFMaxIt         ....   150
   Startup grad/error  SOSCFStart         ....  0.003300
   Hessian update      SOSCFHessUp        .... L-BFGS
   Autom. constraints  SOSCFAutoConstrain .... off
 Level Shifting         CNVShift        .... on
   Level shift para.    LevelShift      ....    0.2500
   Turn off err/grad.   ShiftErr        ....    0.0010
 Zerner damping         CNVZerner       .... off
 Static damping         CNVDamp         .... on
   Fraction old density DampFac         ....    0.7000
   Max. Damping (<1)    DampMax         ....    0.9800
   Min. Damping (>=0)   DampMin         ....    0.0000
   Turn off err/grad.   DampErr         ....    0.1000

SCF Procedure:
 Maximum # iterations   MaxIter         ....   125
 SCF integral mode      SCFMode         .... Direct
   Integral package                     .... SHARK and LIBINT hybrid scheme
 Reset frequency        DirectResetFreq ....    20
 Integral Threshold     Thresh          ....  2.500e-11 Eh
 Primitive CutOff       TCut            ....  2.500e-12 Eh

Convergence Tolerance:
 Convergence Check Mode ConvCheckMode   .... Total+1el-Energy
 Convergence forced     ConvForced      .... 0
 Energy Change          TolE            ....  1.000e-08 Eh
 1-El. energy change                    ....  1.000e-05 Eh
 Orbital Gradient       TolG            ....  1.000e-05
 Orbital Rotation angle TolX            ....  1.000e-05
 DIIS Error             TolErr          ....  5.000e-07

------------------------------
INITIAL GUESS: MODEL POTENTIAL
------------------------------
Loading Hartree-Fock densities                     ... done
Calculating cut-offs                               ... done
Initializing the effective Hamiltonian             ... done
Setting up the integral package (SHARK)            ... done
Starting the Coulomb interaction                   ... done (   0.2 sec)
Making the grid                                    ... done (   0.3 sec)
Mapping shells                                     ... done
Starting the XC term evaluation                    ... done (   0.1 sec)
  promolecular density results
     # of electrons  =    159.987228437
     EX              =   -174.291054149
     EC              =     -6.008062913
     EX+EC           =   -180.299117062
Transforming the Hamiltonian                       ... done (   0.0 sec)
Diagonalizing the Hamiltonian                      ... done (   0.1 sec)
Back transforming the eigenvectors                 ... done (   0.0 sec)
Now organizing SCF variables                       ... done
                      ------------------
                      INITIAL GUESS DONE (   0.7 sec)
                      ------------------
             **** ENERGY FILE WAS UPDATED (20250918/APP_4mer/opt/APP_4mer.en.tmp) ****
Finished Guess after   1.5 sec
Maximum memory used throughout the entire GUESS-calculation: 38.0 MB


           ************************************************************
           *        Program running with 24 parallel MPI-processes    *
           *              working on a common directory               *
           ************************************************************

-------------------------------------------------------------------------------------------
                                      ORCA LEAN-SCF
                              memory conserving SCF solver
-------------------------------------------------------------------------------------------

----------------------------------------D-I-I-S--------------------------------------------
Iteration    Energy (Eh)           Delta-E    RMSDP     MaxDP     DIISErr   Damp  Time(sec)
-------------------------------------------------------------------------------------------
               ***  Starting incremental Fock matrix formation  ***
    1    -1948.1051225279547907     0.00e+00  7.88e-03  1.22e-01  3.95e-01  0.700   2.8
    2    -1948.6942308459824744    -5.89e-01  4.81e-03  4.83e-02  1.43e-01  0.700   1.6
                               ***Turning on AO-DIIS***
    3    -1948.8841098290927221    -1.90e-01  1.61e-03  1.29e-02  4.90e-02  0.700   1.5
    4    -1949.0079050978929445    -1.24e-01  2.14e-03  2.50e-02  1.87e-02  0.000   1.5
    5    -1949.2929657704607962    -2.85e-01  8.55e-04  6.94e-03  1.16e-02  0.000   1.5
                              *** Initializing SOSCF ***
---------------------------------------S-O-S-C-F--------------------------------------
Iteration    Energy (Eh)           Delta-E    RMSDP     MaxDP     MaxGrad    Time(sec)
--------------------------------------------------------------------------------------
    6    -1949.2943074029471973    -1.34e-03  2.75e-04  2.31e-03  1.36e-03     1.5
               *** Restarting incremental Fock matrix formation ***
    7    -1949.2943760341704547    -6.86e-05  1.60e-04  1.62e-03  2.47e-04     2.7
    8    -1949.2943820113828224    -5.98e-06  4.75e-05  4.59e-04  1.61e-04     2.1
    9    -1949.2943831043248792    -1.09e-06  3.99e-05  3.92e-04  1.36e-04     2.1
   10    -1949.2943839733115965    -8.69e-07  1.29e-05  1.10e-04  5.21e-05     2.1
   11    -1949.2943841243582028    -1.51e-07  1.05e-05  7.70e-05  2.89e-05     1.9
   12    -1949.2943842260274323    -1.02e-07  3.27e-06  5.49e-05  7.37e-06     1.7
   13    -1949.2943842351105559    -9.08e-09  2.18e-06  1.60e-05  6.56e-06     1.5
                 **** Energy Check signals convergence ****

               *****************************************************
               *                     SUCCESS                       *
               *           SCF CONVERGED AFTER  13 CYCLES          *
               *****************************************************

Recomputing exchange energy using gridx3       ... done (    3.382 sec)
Old exchange energy                            :    -35.181993215 Eh
New exchange energy                            :    -35.181963625 Eh
Exchange energy change after final integration :      0.000029590 Eh
Total energy after final integration           :  -1949.294354635 Eh
             **** ENERGY FILE WAS UPDATED (20250918/APP_4mer/opt/APP_4mer.en.tmp) ****

----------------
TOTAL SCF ENERGY
----------------

Total Energy       :      -1949.29435463499817 Eh          -53042.99604 eV

Components:
Nuclear Repulsion  :       1983.04284671786945 Eh           53961.33920 eV
Electronic Energy  :      -3932.33723094313291 Eh         -107004.33605 eV
One Electron Energy:      -6644.92042325684906 Eh         -180817.47730 eV
Two Electron Energy:       2712.58319231371615 Eh           73813.14125 eV

Virial components:
Potential Energy   :      -3893.90889035736336 Eh         -105958.64774 eV
Kinetic Energy     :       1944.61453572236519 Eh           52915.65170 eV
Virial Ratio       :          2.00240655349771

DFT components:
N(Alpha)           :       80.000183725083 electrons
N(Beta)            :       80.000183725083 electrons
N(Total)           :      160.000367450165 electrons
E(X)               :     -139.946402628246 Eh       
E(C)               :       -7.047923832710 Eh       
E(XC)              :     -146.994326460956 Eh       

---------------
SCF CONVERGENCE
---------------

  Last Energy change         ...    9.0831e-09  Tolerance :   1.0000e-08
  Last MAX-Density change    ...    1.5998e-05  Tolerance :   1.0000e-07
  Last RMS-Density change    ...    2.1769e-06  Tolerance :   5.0000e-09
  Last DIIS Error            ...    1.3610e-03  Tolerance :   5.0000e-07
  Last Orbital Gradient      ...    6.5584e-06  Tolerance :   1.0000e-05
  Last Orbital Rotation      ...    6.3280e-06  Tolerance :   1.0000e-05


----------------
ORBITAL ENERGIES
----------------

  NO   OCC          E(Eh)            E(eV) 
   0   2.0000     -77.166768     -2099.8145 
   1   2.0000     -77.164081     -2099.7414 
   2   2.0000     -77.136265     -2098.9845 
   3   2.0000     -19.144115      -520.9378 
   4   2.0000     -19.141056      -520.8546 
   5   2.0000     -19.129259      -520.5336 
   6   2.0000     -19.127529      -520.4865 
   7   2.0000     -19.090692      -519.4841 
   8   2.0000     -19.087802      -519.4055 
   9   2.0000     -19.070520      -518.9352 
  10   2.0000     -19.070282      -518.9288 
  11   2.0000     -19.048973      -518.3489 
  12   2.0000     -19.016718      -517.4712 
  13   2.0000     -14.401195      -391.8764 
  14   2.0000     -14.395664      -391.7259 
  15   2.0000     -14.307339      -389.3225 
  16   2.0000      -6.632016      -180.4663 
  17   2.0000      -6.629617      -180.4011 
  18   2.0000      -6.601313      -179.6308 
  19   2.0000      -4.795348      -130.4881 
  20   2.0000      -4.794225      -130.4575 
  21   2.0000      -4.792900      -130.4214 
  22   2.0000      -4.792841      -130.4198 
  23   2.0000      -4.791879      -130.3937 
  24   2.0000      -4.790375      -130.3527 
  25   2.0000      -4.765635      -129.6795 
  26   2.0000      -4.764408      -129.6461 
  27   2.0000      -4.759910      -129.5237 
  28   2.0000      -1.094814       -29.7914 
  29   2.0000      -1.074064       -29.2268 
  30   2.0000      -1.035537       -28.1784 
  31   2.0000      -1.011176       -27.5155 
  32   2.0000      -0.995600       -27.0916 
  33   2.0000      -0.994364       -27.0580 
  34   2.0000      -0.966011       -26.2865 
  35   2.0000      -0.961093       -26.1527 
  36   2.0000      -0.948653       -25.8142 
  37   2.0000      -0.939632       -25.5687 
  38   2.0000      -0.937238       -25.5035 
  39   2.0000      -0.896946       -24.4071 
  40   2.0000      -0.880766       -23.9669 
  41   2.0000      -0.659721       -17.9519 
  42   2.0000      -0.609562       -16.5870 
  43   2.0000      -0.589284       -16.0352 
  44   2.0000      -0.584240       -15.8980 
  45   2.0000      -0.572250       -15.5717 
  46   2.0000      -0.568390       -15.4667 
  47   2.0000      -0.552800       -15.0424 
  48   2.0000      -0.548070       -14.9138 
  49   2.0000      -0.545625       -14.8472 
  50   2.0000      -0.536765       -14.6061 
  51   2.0000      -0.524538       -14.2734 
  52   2.0000      -0.511967       -13.9313 
  53   2.0000      -0.503754       -13.7078 
  54   2.0000      -0.473628       -12.8881 
  55   2.0000      -0.457435       -12.4474 
  56   2.0000      -0.440228       -11.9792 
  57   2.0000      -0.433902       -11.8071 
  58   2.0000      -0.419920       -11.4266 
  59   2.0000      -0.400603       -10.9010 
  60   2.0000      -0.395353       -10.7581 
  61   2.0000      -0.383139       -10.4257 
  62   2.0000      -0.374643       -10.1945 
  63   2.0000      -0.363716        -9.8972 
  64   2.0000      -0.360394        -9.8068 
  65   2.0000      -0.354106        -9.6357 
  66   2.0000      -0.344778        -9.3819 
  67   2.0000      -0.329934        -8.9780 
  68   2.0000      -0.326730        -8.8908 
  69   2.0000      -0.321117        -8.7380 
  70   2.0000      -0.308572        -8.3967 
  71   2.0000      -0.302223        -8.2239 
  72   2.0000      -0.286297        -7.7905 
  73   2.0000      -0.284461        -7.7406 
  74   2.0000      -0.280988        -7.6461 
  75   2.0000      -0.278771        -7.5858 
  76   2.0000      -0.277294        -7.5456 
  77   2.0000      -0.273848        -7.4518 
  78   2.0000      -0.234249        -6.3742 
  79   2.0000      -0.223822        -6.0905 
  80   0.0000      -0.015740        -0.4283 
  81   0.0000      -0.009509        -0.2588 
  82   0.0000       0.037452         1.0191 
  83   0.0000       0.044466         1.2100 
  84   0.0000       0.050532         1.3750 
  85   0.0000       0.054728         1.4892 
  86   0.0000       0.055951         1.5225 
  87   0.0000       0.091357         2.4859 
  88   0.0000       0.102636         2.7929 
  89   0.0000       0.124423         3.3857 
  90   0.0000       0.125545         3.4163 
*Only the first 10 virtual orbitals were printed.

                    ********************************
                    * MULLIKEN POPULATION ANALYSIS *
                    ********************************

-----------------------
MULLIKEN ATOMIC CHARGES
-----------------------
   0 O :   -0.478839
   1 P :    0.924415
   2 H :    0.328426
   3 O :   -0.334005
   4 O :   -0.612368
   5 P :    0.822071
   6 O :   -0.317832
   7 O :   -0.557390
   8 P :    0.928739
   9 O :   -0.480704
  10 O :   -0.622069
  11 H :    0.326634
  12 O :   -0.687564
  13 O :   -0.631127
  14 O :   -0.694337
  15 N :   -0.445885
  16 N :   -0.493169
  17 N :   -0.445878
  18 H :    0.322170
  19 H :    0.266270
  20 H :    0.270355
  21 H :    0.314150
  22 H :    0.302442
  23 H :    0.305798
  24 H :    0.213439
  25 H :    0.303243
  26 H :    0.316222
  27 H :    0.320591
  28 H :    0.266995
  29 H :    0.269207
Sum of atomic charges:    0.0000000

--------------------------------
MULLIKEN REDUCED ORBITAL CHARGES
--------------------------------
  0 O s       :     3.763835  s :     3.763835
      pz      :     1.565861  p :     4.688761
      px      :     1.575450
      py      :     1.547451
      dz2     :     0.004847  d :     0.024978
      dxz     :     0.007230
      dyz     :     0.008600
      dx2y2   :     0.001826
      dxy     :     0.002476
      f0      :     0.000048  f :     0.001265
      f+1     :     0.000046
      f-1     :     0.000105
      f+2     :     0.000070
      f-2     :     0.000450
      f+3     :     0.000297
      f-3     :     0.000248

  1 P s       :     5.047857  s :     5.047857
      pz      :     2.626982  p :     7.865997
      px      :     2.637026
      py      :     2.601989
      dz2     :     0.192288  d :     1.002316
      dxz     :     0.199598
      dyz     :     0.206197
      dx2y2   :     0.176774
      dxy     :     0.227459
      f0      :     0.023876  f :     0.159415
      f+1     :     0.016362
      f-1     :     0.026100
      f+2     :     0.022676
      f-2     :     0.027660
      f+3     :     0.023994
      f-3     :     0.018747

  2 H s       :     0.624203  s :     0.624203
      pz      :     0.014808  p :     0.047371
      px      :     0.015716
      py      :     0.016847

  3 O s       :     3.690619  s :     3.690619
      pz      :     1.668997  p :     4.616496
      px      :     1.346500
      py      :     1.600999
      dz2     :     0.003406  d :     0.025251
      dxz     :     0.004544
      dyz     :     0.004264
      dx2y2   :     0.005808
      dxy     :     0.007229
      f0      :     0.000226  f :     0.001639
      f+1     :     0.000330
      f-1     :     0.000077
      f+2     :     0.000207
      f-2     :     0.000197
      f+3     :     0.000317
      f-3     :     0.000285

  4 O s       :     3.807874  s :     3.807874
      pz      :     1.518703  p :     4.779220
      px      :     1.626622
      py      :     1.633894
      dz2     :     0.007733  d :     0.024080
      dxz     :     0.006447
      dyz     :     0.004720
      dx2y2   :     0.003434
      dxy     :     0.001746
      f0      :     0.000231  f :     0.001194
      f+1     :     0.000274
      f-1     :     0.000173
      f+2     :     0.000191
      f-2     :     0.000196
      f+3     :     0.000044
      f-3     :     0.000086

  5 P s       :     5.060642  s :     5.060642
      pz      :     2.629335  p :     7.965034
      px      :     2.668051
      py      :     2.667648
      dz2     :     0.207260  d :     0.997525
      dxz     :     0.217761
      dyz     :     0.223913
      dx2y2   :     0.176314
      dxy     :     0.172278
      f0      :     0.018568  f :     0.154727
      f+1     :     0.028698
      f-1     :     0.025124
      f+2     :     0.024524
      f-2     :     0.022455
      f+3     :     0.012759
      f-3     :     0.022601

  6 O s       :     3.702302  s :     3.702302
      pz      :     1.466092  p :     4.588331
      px      :     1.523512
      py      :     1.598728
      dz2     :     0.005247  d :     0.025538
      dxz     :     0.004419
      dyz     :     0.006031
      dx2y2   :     0.005061
      dxy     :     0.004780
      f0      :     0.000231  f :     0.001660
      f+1     :     0.000427
      f-1     :     0.000124
      f+2     :     0.000313
      f-2     :     0.000355
      f+3     :     0.000110
      f-3     :     0.000100

  7 O s       :     3.814859  s :     3.814859
      pz      :     1.415165  p :     4.715642
      px      :     1.658782
      py      :     1.641695
      dz2     :     0.009169  d :     0.025644
      dxz     :     0.007230
      dyz     :     0.007610
      dx2y2   :     0.000813
      dxy     :     0.000821
      f0      :     0.000419  f :     0.001245
      f+1     :     0.000303
      f-1     :     0.000339
      f+2     :     0.000088
      f-2     :     0.000088
      f+3     :     0.000004
      f-3     :     0.000004

  8 P s       :     5.063313  s :     5.063313
      pz      :     2.624182  p :     7.863380
      px      :     2.607610
      py      :     2.631587
      dz2     :     0.174156  d :     0.984944
      dxz     :     0.219471
      dyz     :     0.185350
      dx2y2   :     0.211764
      dxy     :     0.194203
      f0      :     0.021076  f :     0.159623
      f+1     :     0.020271
      f-1     :     0.024715
      f+2     :     0.022704
      f-2     :     0.025709
      f+3     :     0.018757
      f-3     :     0.026391

  9 O s       :     3.763820  s :     3.763820
      pz      :     1.620473  p :     4.690693
      px      :     1.759697
      py      :     1.310522
      dz2     :     0.003748  d :     0.024938
      dxz     :     0.004850
      dyz     :     0.009301
      dx2y2   :     0.002571
      dxy     :     0.004468
      f0      :     0.000119  f :     0.001253
      f+1     :     0.000067
      f-1     :     0.000054
      f+2     :     0.000238
      f-2     :     0.000280
      f+3     :     0.000314
      f-3     :     0.000181

 10 O s       :     3.800760  s :     3.800760
      pz      :     1.704280  p :     4.796354
      px      :     1.377819
      py      :     1.714255
      dz2     :     0.003367  d :     0.023770
      dxz     :     0.007089
      dyz     :     0.002246
      dx2y2   :     0.004941
      dxy     :     0.006126
      f0      :     0.000105  f :     0.001186
      f+1     :     0.000186
      f-1     :     0.000041
      f+2     :     0.000208
      f-2     :     0.000112
      f+3     :     0.000250
      f-3     :     0.000284

 11 H s       :     0.626112  s :     0.626112
      pz      :     0.014489  p :     0.047254
      px      :     0.015834
      py      :     0.016930

 12 O s       :     3.834335  s :     3.834335
      pz      :     1.620909  p :     4.830201
      px      :     1.707941
      py      :     1.501351
      dz2     :     0.003982  d :     0.021924
      dxz     :     0.003721
      dyz     :     0.005849
      dx2y2   :     0.004607
      dxy     :     0.003765
      f0      :     0.000127  f :     0.001104
      f+1     :     0.000060
      f-1     :     0.000227
      f+2     :     0.000248
      f-2     :     0.000192
      f+3     :     0.000142
      f-3     :     0.000108

 13 O s       :     3.800782  s :     3.800782
      pz      :     1.678053  p :     4.806194
      px      :     1.692023
      py      :     1.436119
      dz2     :     0.003875  d :     0.022890
      dxz     :     0.001267
      dyz     :     0.006601
      dx2y2   :     0.005571
      dxy     :     0.005576
      f0      :     0.000117  f :     0.001261
      f+1     :     0.000036
      f-1     :     0.000267
      f+2     :     0.000171
      f-2     :     0.000144
      f+3     :     0.000255
      f-3     :     0.000271

 14 O s       :     3.833239  s :     3.833239
      pz      :     1.587761  p :     4.838834
      px      :     1.701508
      py      :     1.549565
      dz2     :     0.005156  d :     0.021118
      dxz     :     0.002887
      dyz     :     0.005127
      dx2y2   :     0.003697
      dxy     :     0.004251
      f0      :     0.000121  f :     0.001146
      f+1     :     0.000041
      f-1     :     0.000313
      f+2     :     0.000220
      f-2     :     0.000209
      f+3     :     0.000132
      f-3     :     0.000110

 15 N s       :     3.453579  s :     3.453579
      pz      :     1.369301  p :     3.972538
      px      :     1.247717
      py      :     1.355520
      dz2     :     0.002328  d :     0.018359
      dxz     :     0.003524
      dyz     :     0.005200
      dx2y2   :     0.005273
      dxy     :     0.002034
      f0      :     0.000085  f :     0.001409
      f+1     :     0.000200
      f-1     :     0.000047
      f+2     :     0.000392
      f-2     :     0.000369
      f+3     :     0.000154
      f-3     :     0.000161

 16 N s       :     3.456983  s :     3.456983
      pz      :     1.407559  p :     4.014381
      px      :     1.361277
      py      :     1.245546
      dz2     :     0.006935  d :     0.020444
      dxz     :     0.002759
      dyz     :     0.003227
      dx2y2   :     0.004720
      dxy     :     0.002804
      f0      :     0.000344  f :     0.001361
      f+1     :     0.000154
      f-1     :     0.000056
      f+2     :     0.000170
      f-2     :     0.000052
      f+3     :     0.000553
      f-3     :     0.000032

 17 N s       :     3.454095  s :     3.454095
      pz      :     1.370153  p :     3.971960
      px      :     1.324689
      py      :     1.277119
      dz2     :     0.003722  d :     0.018417
      dxz     :     0.002021
      dyz     :     0.005853
      dx2y2   :     0.003828
      dxy     :     0.002993
      f0      :     0.000032  f :     0.001406
      f+1     :     0.000101
      f-1     :     0.000548
      f+2     :     0.000064
      f-2     :     0.000176
      f+3     :     0.000454
      f-3     :     0.000032

 18 H s       :     0.612612  s :     0.612612
      pz      :     0.011272  p :     0.065218
      px      :     0.007607
      py      :     0.046339

 19 H s       :     0.699067  s :     0.699067
      pz      :     0.008363  p :     0.034663
      px      :     0.018544
      py      :     0.007755

 20 H s       :     0.694953  s :     0.694953
      pz      :     0.011955  p :     0.034693
      px      :     0.009648
      py      :     0.013090

 21 H s       :     0.635012  s :     0.635012
      pz      :     0.021956  p :     0.050838
      px      :     0.014358
      py      :     0.014523

 22 H s       :     0.624932  s :     0.624932
      pz      :     0.049650  p :     0.072625
      px      :     0.010166
      py      :     0.012810

 23 H s       :     0.635036  s :     0.635036
      pz      :     0.010083  p :     0.059166
      px      :     0.017166
      py      :     0.031917

 24 H s       :     0.750720  s :     0.750720
      pz      :     0.010485  p :     0.035840
      px      :     0.009234
      py      :     0.016122

 25 H s       :     0.636514  s :     0.636514
      pz      :     0.011431  p :     0.060243
      px      :     0.042273
      py      :     0.006539

 26 H s       :     0.634725  s :     0.634725
      pz      :     0.007514  p :     0.049054
      px      :     0.035157
      py      :     0.006383

 27 H s       :     0.613095  s :     0.613095
      pz      :     0.033265  p :     0.066314
      px      :     0.012773
      py      :     0.020276

 28 H s       :     0.698279  s :     0.698279
      pz      :     0.008218  p :     0.034726
      px      :     0.010315
      py      :     0.016193

 29 H s       :     0.696210  s :     0.696210
      pz      :     0.014511  p :     0.034584
      px      :     0.008008
      py      :     0.012065



                     *******************************
                     * LOEWDIN POPULATION ANALYSIS *
                     *******************************

----------------------
LOEWDIN ATOMIC CHARGES
----------------------
   0 O :   -0.139500
   1 P :    0.009093
   2 H :    0.185157
   3 O :   -0.012712
   4 O :   -0.302060
   5 P :    0.004040
   6 O :   -0.002291
   7 O :   -0.311422
   8 P :    0.020851
   9 O :   -0.147544
  10 O :   -0.313340
  11 H :    0.183380
  12 O :   -0.321056
  13 O :   -0.304649
  14 O :   -0.325755
  15 N :    0.011751
  16 N :   -0.031700
  17 N :    0.010174
  18 H :    0.139893
  19 H :    0.170705
  20 H :    0.170041
  21 H :    0.164375
  22 H :    0.102595
  23 H :    0.129382
  24 H :    0.137438
  25 H :    0.125916
  26 H :    0.169503
  27 H :    0.136817
  28 H :    0.168154
  29 H :    0.172766

-------------------------------
LOEWDIN REDUCED ORBITAL CHARGES
-------------------------------
  0 O s       :     3.413651  s :     3.413651
      pz      :     1.589082  p :     4.677026
      px      :     1.557970
      py      :     1.529974
      dz2     :     0.005135  d :     0.046200
      dxz     :     0.013145
      dyz     :     0.015348
      dx2y2   :     0.003858
      dxy     :     0.008715
      f0      :     0.000210  f :     0.002623
      f+1     :     0.000270
      f-1     :     0.000351
      f+2     :     0.000224
      f-2     :     0.000885
      f+3     :     0.000383
      f-3     :     0.000299

  1 P s       :     4.593987  s :     4.593987
      pz      :     2.720578  p :     8.095673
      px      :     2.684514
      py      :     2.690581
      dz2     :     0.338614  d :     1.775897
      dxz     :     0.360915
      dyz     :     0.387121
      dx2y2   :     0.288585
      dxy     :     0.400662
      f0      :     0.071011  f :     0.525349
      f+1     :     0.059367
      f-1     :     0.083562
      f+2     :     0.074290
      f-2     :     0.092762
      f+3     :     0.079326
      f-3     :     0.065031

  2 H s       :     0.661629  s :     0.661629
      pz      :     0.058019  p :     0.153214
      px      :     0.043433
      py      :     0.051762

  3 O s       :     3.333456  s :     3.333456
      pz      :     1.593495  p :     4.615386
      px      :     1.449873
      py      :     1.572017
      dz2     :     0.008307  d :     0.060661
      dxz     :     0.014102
      dyz     :     0.005184
      dx2y2   :     0.013035
      dxy     :     0.020033
      f0      :     0.000381  f :     0.003209
      f+1     :     0.000552
      f-1     :     0.000191
      f+2     :     0.000464
      f-2     :     0.000375
      f+3     :     0.000598
      f-3     :     0.000648

  4 O s       :     3.502375  s :     3.502375
      pz      :     1.601991  p :     4.750888
      px      :     1.595846
      py      :     1.553050
      dz2     :     0.013904  d :     0.046228
      dxz     :     0.014176
      dyz     :     0.007100
      dx2y2   :     0.007617
      dxy     :     0.003431
      f0      :     0.000337  f :     0.002570
      f+1     :     0.000723
      f-1     :     0.000527
      f+2     :     0.000273
      f-2     :     0.000353
      f+3     :     0.000091
      f-3     :     0.000265

  5 P s       :     4.600135  s :     4.600135
      pz      :     2.725606  p :     8.112214
      px      :     2.671395
      py      :     2.715212
      dz2     :     0.365346  d :     1.773015
      dxz     :     0.372982
      dyz     :     0.393675
      dx2y2   :     0.323034
      dxy     :     0.317978
      f0      :     0.067383  f :     0.510596
      f+1     :     0.086831
[...]
New trust radius                        ....     0.138271605

                                .--------------------.
          ----------------------|Geometry convergence|-------------------------
          Item                value                   Tolerance       Converged
          ---------------------------------------------------------------------
          Energy change      -0.0000532490            0.0000050000      NO
          RMS gradient        0.0002583595            0.0001000000      NO
          MAX gradient        0.0008872043            0.0003000000      NO
          RMS step            0.0047568196            0.0020000000      NO
          MAX step            0.0196644130            0.0040000000      NO
          -------------------------------------------------------------------------
          ........................................................
          Max(Bonds)      0.0088      Max(Angles)    0.29
          Max(Dihed)        1.13      Max(Improp)    0.00
          ---------------------------------------------------------------------

The optimization has not yet converged - more geometry cycles are needed


    ---------------------------------------------------------------------------
                         Redundant Internal Coordinates
                            (Angstroem and degrees)

        Definition                    Value    dE/dq     Step     New-Value
    ----------------------------------------------------------------------------
     1. B(P   1,O   0)                1.5996  0.000069  0.0004    1.6001   
     2. B(H   2,O   0)                0.9637  0.000048  0.0000    0.9637   
     3. B(O   3,P   1)                1.6410  0.000324 -0.0006    1.6404   
     4. B(O   4,P   1)                1.5055 -0.000527 -0.0002    1.5053   
     5. B(P   5,O   3)                1.6000  0.000008  0.0005    1.6005   
     6. B(O   6,P   5)                1.6239 -0.000064 -0.0004    1.6235   
     7. B(O   7,P   5)                1.5004 -0.000580  0.0004    1.5007   
     8. B(P   8,O   6)                1.6061  0.000179  0.0001    1.6062   
     9. B(O   9,P   8)                1.5882  0.000369 -0.0004    1.5878   
    10. B(O  10,P   8)                1.5535 -0.000571  0.0002    1.5537   
    11. B(H  11,O   9)                0.9646 -0.000088  0.0002    0.9647   
    12. B(O  12,P   1)                1.4829 -0.000887  0.0002    1.4832   
    13. B(O  13,P   5)                1.4939  0.000227 -0.0003    1.4937   
    14. B(O  14,P   8)                1.4702 -0.000238  0.0003    1.4705   
    15. B(H  18,N  15)                1.1135 -0.000043  0.0005    1.1140   
    16. B(H  18,P   1)                2.6404 -0.000252 -0.0003    2.6401   
    17. B(H  18,O   4)                1.4325  0.000073 -0.0009    1.4315   
    18. B(H  19,N  15)                1.0146  0.000089  0.0002    1.0148   
    19. B(H  20,N  15)                1.0685 -0.000542  0.0003    1.0688   
    20. B(H  20,H  18)                1.7260  0.000021 -0.0008    1.7253   
    21. B(H  20,O   7)                1.5957 -0.000186 -0.0015    1.5942   
    22. B(H  21,N  15)                1.0156  0.000463 -0.0002    1.0154   
    23. B(H  22,N  16)                1.0396 -0.000371  0.0002    1.0398   
    24. B(H  22,O  13)                1.7527  0.000090  0.0006    1.7532   
    25. B(H  23,N  16)                1.0371 -0.000046  0.0002    1.0372   
    26. B(H  23,O  14)                1.7626  0.000030 -0.0028    1.7598   
    27. B(H  24,N  16)                1.0126 -0.000330  0.0000    1.0126   
    28. B(H  25,O  12)                1.5875  0.000183 -0.0004    1.5871   
    29. B(H  25,N  16)                1.0638 -0.000033  0.0001    1.0640   
    30. B(H  25,P   1)                2.7352 -0.000070 -0.0009    2.7343   
    31. B(H  26,N  17)                1.0150 -0.000198 -0.0002    1.0148   
    32. B(H  27,H  26)                2.0611 -0.000113 -0.0010    2.0601   
    33. B(H  27,N  17)                1.5540 -0.000027 -0.0049    1.5491   
    34. B(H  27,O  10)                1.0485 -0.000023  0.0019    1.0503   
    35. B(H  27,P   8)                2.2323 -0.000376  0.0012    2.2336   
    36. B(H  28,N  17)                1.0191  0.000245 -0.0001    1.0190   
    37. B(H  28,O  13)                2.9546 -0.000080  0.0088    2.9634   
    38. B(H  29,N  17)                1.0135  0.000356  0.0001    1.0136   
    39. A(P   1,O   0,H   2)          112.09  0.000670   -0.09    112.00   
    40. A(O   4,P   1,O  12)          120.67  0.000028   -0.06    120.62   
    41. A(O   0,P   1,O   3)          100.19  0.000252   -0.14    100.05   
    42. A(O   0,P   1,O   4)          109.09  0.000023    0.14    109.23   
    43. A(O   3,P   1,O  12)          109.50 -0.000086    0.03    109.53   
    44. A(O   0,P   1,O  12)          108.03 -0.000188   -0.01    108.02   
    45. A(O   3,P   1,O   4)          107.44  0.000018    0.01    107.45   
    46. A(P   1,O   3,P   5)          133.52 -0.000370    0.03    133.55   
    47. A(P   1,O   4,H  18)          127.96  0.000131    0.06    128.03   
    48. A(O   6,P   5,O  13)          110.80  0.000154    0.10    110.90   
    49. A(O   6,P   5,O   7)          106.31 -0.000026   -0.13    106.18   
    50. A(O   3,P   5,O   7)          110.14  0.000103   -0.09    110.05   
    51. A(O   3,P   5,O   6)           99.00  0.000231   -0.03     98.97   
    52. A(O   7,P   5,O  13)          116.99 -0.000334    0.08    117.07   
    53. A(O   3,P   5,O  13)          111.96 -0.000030    0.05    112.01   
    54. A(P   5,O   6,P   8)          130.77 -0.000251    0.08    130.85   
    55. A(O   9,P   8,O  10)          105.69 -0.000039    0.16    105.84   
    56. A(O   9,P   8,O  14)          109.86 -0.000076    0.00    109.87   
    57. A(O   6,P   8,O  14)          114.03 -0.000305   -0.01    114.02   
    58. A(O   6,P   8,O   9)          102.82  0.000388   -0.10    102.72   
    59. A(O  10,P   8,O  14)          118.04  0.000158   -0.04    118.00   
    60. A(O   6,P   8,O  10)          105.04 -0.000073   -0.01    105.03   
    61. A(P   8,O   9,H  11)          113.21  0.000045    0.13    113.34   
    62. A(P   8,O  10,H  27)          116.84  0.000131   -0.04    116.80   
    63. A(P   1,O  12,H  25)          125.91  0.000416   -0.05    125.86   
    64. A(P   5,O  13,H  22)          123.59  0.000166   -0.29    123.30   
    65. A(P   8,O  14,H  23)          134.84  0.000625    0.01    134.85   
    66. A(H  20,N  15,H  21)          109.38 -0.000569    0.24    109.62   
    67. A(H  19,N  15,H  21)          109.62 -0.000001    0.03    109.65   
    68. A(H  19,N  15,H  20)          111.15 -0.000325    0.02    111.17   
    69. A(H  18,N  15,H  21)          110.53  0.000265   -0.14    110.39   
    70. A(H  18,N  15,H  20)          104.55  0.000380   -0.12    104.43   
    71. A(H  18,N  15,H  19)          111.50  0.000247   -0.03    111.48   
    72. A(H  23,N  16,H  25)          111.70 -0.000238    0.10    111.81   
    73. A(H  22,N  16,H  25)          103.19  0.000096   -0.13    103.06   
    74. A(H  23,N  16,H  24)          112.26  0.000027    0.06    112.32   
    75. A(H  22,N  16,H  24)          113.52  0.000106   -0.18    113.34   
    76. A(H  22,N  16,H  23)          103.49  0.000222    0.03    103.53   
    77. A(H  24,N  16,H  25)          112.04 -0.000180    0.09    112.14   
    78. A(H  27,N  17,H  29)          115.22 -0.000411   -0.07    115.15   
    79. A(H  27,N  17,H  28)          110.42  0.000053   -0.04    110.38   
    80. A(H  26,N  17,H  27)          104.75  0.000033    0.27    105.02   
    81. A(H  28,N  17,H  29)          109.71  0.000007   -0.17    109.54   
    82. A(H  26,N  17,H  29)          109.77  0.000098   -0.01    109.76   
    83. A(H  26,N  17,H  28)          106.53  0.000279    0.03    106.56   
    84. A(N  15,H  18,H  20)           36.81 -0.000279    0.05     36.86   
    85. A(O   4,H  18,H  20)          136.50  0.000066   -0.05    136.46   
    86. A(N  15,H  20,H  18)           38.64 -0.000100    0.07     38.71   
    87. A(O  13,H  22,N  16)          147.29 -0.000308    0.23    147.52   
    88. A(O  14,H  23,N  16)          150.20 -0.000478    0.17    150.37   
    89. A(O  12,H  25,N  16)          162.99 -0.000316   -0.19    162.80   
    90. A(N  17,H  26,H  27)           46.81  0.000012   -0.24     46.57   
    91. A(N  17,H  27,H  26)           28.44 -0.000045   -0.03     28.41   
    92. A(O  10,H  27,H  26)          149.29  0.000015   -0.17    149.11   
    93. A(O  10,H  27,N  17)          177.52 -0.000038   -0.20    177.32   
    94. D(O   3,P   1,O   0,H   2)     84.82  0.000082   -0.57     84.25   
    95. D(O   4,P   1,O   0,H   2)    -27.78 -0.000059   -0.57    -28.35   
    96. D(O  12,P   1,O   0,H   2)   -160.65  0.000032   -0.60   -161.25   
    97. D(P   5,O   3,P   1,O  12)     72.98  0.000048   -0.23     72.75   
    98. D(P   5,O   3,P   1,O   0)   -173.61 -0.000076   -0.29   -173.90   
    99. D(P   5,O   3,P   1,O   4)    -59.74  0.000063   -0.19    -59.93   
   100. D(H  18,O   4,P   1,O   3)     13.12 -0.000137   -0.25     12.87   
   101. D(H  18,O   4,P   1,O   0)    120.87  0.000170   -0.35    120.53   
   102. D(H  18,O   4,P   1,O  12)   -113.25 -0.000055   -0.27   -113.52   
   103. D(O  13,P   5,O   3,P   1)    -35.48  0.000316   -0.13    -35.60   
   104. D(O   6,P   5,O   3,P   1)   -152.32  0.000028   -0.25   -152.57   
   105. D(O   7,P   5,O   3,P   1)     96.52 -0.000080   -0.06     96.46   
   106. D(P   8,O   6,P   5,O  13)     -7.93  0.000091   -0.43     -8.35   
   107. D(P   8,O   6,P   5,O   7)   -136.03  0.000428   -0.50   -136.53   
   108. D(P   8,O   6,P   5,O   3)    109.80  0.000234   -0.35    109.45   
   109. D(O  14,P   8,O   6,P   5)    -50.37  0.000103    0.35    -50.02   
   110. D(O  10,P   8,O   6,P   5)     80.37  0.000027    0.28     80.65   
   111. D(O   9,P   8,O   6,P   5)   -169.25  0.000103    0.41   -168.84   
   112. D(H  11,O   9,P   8,O  14)    168.43  0.000124   -0.34    168.08   
   113. D(H  11,O   9,P   8,O  10)     40.07  0.000003   -0.40     39.67   
   114. D(H  11,O   9,P   8,O   6)    -69.82 -0.000051   -0.41    -70.23   
   115. D(H  27,O  10,P   8,O  14)    105.22 -0.000354    0.04    105.26   
   116. D(H  27,O  10,P   8,O   9)   -131.46 -0.000378    0.15   -131.31   
   117. D(H  27,O  10,P   8,O   6)    -23.15  0.000007    0.10    -23.05   
   118. D(H  25,O  12,P   1,O   4)    115.30 -0.000401    0.80    116.10   
   119. D(H  25,O  12,P   1,O   3)    -10.12 -0.000367    0.80     -9.32   
   120. D(H  25,O  12,P   1,O   0)   -118.34 -0.000528    0.95   -117.38   
   121. D(H  22,O  13,P   5,O   7)   -169.88 -0.000117    0.12   -169.77   
   122. D(H  22,O  13,P   5,O   6)     68.07  0.000046    0.15     68.22   
   123. D(H  22,O  13,P   5,O   3)    -41.42 -0.000303    0.10    -41.32   
   124. D(H  23,O  14,P   8,O   6)     26.46 -0.000071   -0.08     26.38   
   125. D(H  23,O  14,P   8,O  10)    -97.54  0.000180   -0.02    -97.56   
   126. D(H  23,O  14,P   8,O   9)    141.26  0.000179   -0.20    141.06   
   127. D(H  21,N  15,O   4,P   1)    108.45 -0.000404   -0.04    108.41   
   128. D(H  20,N  15,O   4,P   1)     -7.97 -0.000029   -0.04     -8.01   
   129. D(H  19,N  15,O   4,P   1)   -126.68  0.000082   -0.15   -126.82   
   130. D(H  20,H  18,N  15,H  21)    117.60 -0.000327    0.15    117.75   
   131. D(H  20,H  18,N  15,H  19)   -120.19  0.000029    0.06   -120.13   
   132. D(H  20,H  18,O   4,P   1)     -9.08 -0.000139    0.97     -8.11   
   133. D(N  15,H  20,H  18,O   4)   -179.11  0.000109   -1.13   -180.23   
   134. D(H  18,H  20,N  15,H  21)   -118.39 -0.000238    0.11   -118.27   
   135. D(H  18,H  20,N  15,H  19)    120.43  0.000352   -0.09    120.34   
   136. D(O  13,H  22,N  16,H  25)     53.46 -0.000069    0.41     53.87   
   137. D(O  13,H  22,N  16,H  24)    174.96 -0.000169    0.34    175.30   
   138. D(O  13,H  22,N  16,H  23)    -63.08  0.000070    0.34    -62.74   
   139. D(N  16,H  22,O  13,P   5)      3.75  0.000117   -0.30      3.45   
   140. D(O  14,H  23,N  16,H  25)   -106.43 -0.000210   -0.04   -106.48   
   141. D(O  14,H  23,N  16,H  24)    126.73  0.000203   -0.30    126.44   
   142. D(O  14,H  23,N  16,H  22)      3.94 -0.000082   -0.14      3.80   
   143. D(N  16,H  23,O  14,P   8)     28.84  0.000400   -0.10     28.74   
   144. D(O  12,H  25,N  16,H  24)   -118.92 -0.000008    0.29   -118.62   
   145. D(O  12,H  25,N  16,H  23)    114.14  0.000292    0.06    114.19   
   146. D(O  12,H  25,N  16,H  22)      3.57  0.000083    0.05      3.62   
   147. D(N  16,H  25,O  12,P   1)    -50.09 -0.000145   -0.73    -50.82   
   148. D(H  27,H  26,N  17,H  29)    124.25 -0.000419    0.08    124.33   
   149. D(H  27,H  26,N  17,H  28)   -117.03 -0.000199   -0.10   -117.13   
   150. D(H  26,H  27,N  17,H  28)    114.32  0.000365    0.17    114.49   
   151. D(O  10,H  27,N  17,H  29)   -145.31 -0.000194   -0.05   -145.36   
   152. D(O  10,H  27,N  17,H  28)     89.72  0.000075    0.25     89.96   
   153. D(O  10,H  27,N  17,H  26)    -24.61 -0.000289    0.08    -24.53   
   154. D(H  26,H  27,O  10,P   8)    -69.90 -0.000679    0.59    -69.31   
   155. D(H  26,H  27,N  17,H  29)   -120.70  0.000095   -0.12   -120.83   
   156. D(N  17,H  27,O  10,P   8)    -47.05 -0.000437    0.48    -46.58   
   157. D(O  10,H  27,H  26,N  17)    177.98 -0.000054   -0.04    177.94   
    ----------------------------------------------------------------------------

Geometry step timings:
Preparation and reading OPT file:      0.000 s ( 0.339 %)
Internal coordinates            :      0.000 s ( 0.488 %)
B/P matrices and projection     :      0.004 s (17.980 %)
Hessian update/contruction      :      0.002 s ( 7.826 %)
Making the step                 :      0.003 s (14.413 %)
Converting the step to Cartesian:      0.000 s ( 1.362 %)
Storing new data                :      0.000 s ( 0.348 %)
Checking convergence            :      0.000 s ( 0.632 %)
Final printing                  :      0.013 s (56.591 %)
Total time                      :      0.024 s

Time for energy+gradient        :   2541.209 s
Time for complete geometry iter :   2550.131 s




    ----------------------------------------------------------------------------
                                  WARNING !!!
       The optimization did not converge but reached the maximum number of
       optimization cycles.
       Please check your results very carefully.
    ----------------------------------------------------------------------------



--------------------------------
SUGGESTED CITATIONS FOR THIS RUN
--------------------------------

Below you find a list of papers that are relevant to this ORCA run
We neither can nor want to force you to cite these papers, but we appreciate if you do
You receive ORCA, which is the product of decades of hard work by many enthusiastic individuals, for free
The only thing we kindly ask in return is that you cite our papers,
We deeply appreciate it, if you show your appreciation for ORCA by not just citing the generic ORCA reference.

Please note that relegating all ORCA citations to the supporting information does *not* help us.
SI sections are not indexed - citations you put there will not count into any citation statistics
But we need these citations in order to attract the funding resources that allow us to do what we are doing

Therefore, if you are a happy ORCA user, please consider citing a few of the papers listed below in the main body of your paper

In addition to the list printed below, the program has created the file 20250918/APP_4mer/opt/APP_4mer.bibtex that contains the list in bibtex format
You can import this file easily into all common literature databanks and citation aid programs


List of essential papers. We consider these as the minimum necessary citations

  1. Neese, F.
     Software update: the ORCA program system, version 6.0
     WIRES Comput. Molec. Sci. 2025 15(1), e70019
     doi.org/10.1002/wcms.7019

List of papers to cite with high priority. The work reported in these papers was absolutely
necessary for this run to complete.
Our perspective: the developers of density functionals and basis sets usually get cited in chemistry papers
Good! But without the algorithms to do something with them, the functionals or basis sets would not do anything.
Hence, in our opinion, the algorithm design and method developments papers are equally worthy of getting cited

  1. Neese, F.
     An improvement of the resolution of the identity approximation for the formation of the Coulomb matrix
     J. Comp. Chem. 2003 24(14), 1740-1747
     doi.org/10.1002/jcc.10318
  2. Neese, F.; Wennmohs, F.; Hansen, A.; Becker, U.
     Efficient, approximate and parallel Hartree-Fock and hybrid DFT calculations. A 'chain-of-spheres' algorithm for the Hartree-Fock exchange
     Chem. Phys. 2009 356(1-3), 98-109
     doi.org/10.1016/j.chemphys.2008.10.036
  3. Grimme, S.; Antony, J.; Ehrlich, S.; Krieg, H.
     A consistent and accurate ab initio parametrization of density functional dispersion correction (DFT-D) for the 94 elements H-Pu
     J. Chem. Phys. 2010 132 , 154104
     doi.org/10.1063/1.3382344
  4. Grimme, S.; Ehrlich, S.; Goerigk, L.
     Effect of the damping function in dispersion corrected density functional theory
     J. Comput. Chem. 2011 32(7), 1456-1465
     doi.org/10.1002/jcc.21759
  5. Helmich-Paris, B.; de Souza, B.; Neese, F.; Izsák, R.
     An improved chain of spheres for exchange algorithm
     J. Chem. Phys. 2021 155(10), 104109
     doi.org/10.1063/5.0058766
  6. Neese, F.
     The SHARK Integral Generation and Digestion System
     J. Comp. Chem. 2022 44(3), 381
     doi.org/10.1002/jcc.26942

List of suggested additional citations. These are papers that are important in the 'surrounding' of 
of this run, or papers that preceded the highly important papers. If you like your results we are grateful for a citation.

  1. Izsak, R.; Neese, F.
     An overlap fitted chain of spheres exchange method
     J. Chem. Phys. 2011 135 , 144105
     doi.org/10.1063/1.3646921
  2. Izsak, R.; Hansen, A.; Neese, F.
     The resolution of identity and chain of spheres approximations for the LPNO-CCSD singles Fock term
     Molec. Phys. 2012 110 , 2413-2417
     doi.org/10.1080/00268976.2012.687466
  3. Neese, F.
     The ORCA program system
     WIRES Comput. Molec. Sci. 2012 2(1), 73-78
     doi.org/10.1002/wcms.81
  4. Izsak, R.; Neese, F.; Klopper, W.
     Robust fitting techniques in the chain of spheres approximation to the Fock exchange: The role of the complementary space
     J. Chem. Phys. 2013 139 , 
     doi.org/10.1063/1.4819264
  5. Neese, F.
     Software update: the ORCA program system, version 4.0
     WIRES Comput. Molec. Sci. 2018 8(1), 1-6
     doi.org/10.1002/wcms.1327
  6. Neese, F.; Wennmohs, F.; Becker, U.; Riplinger, C.
     The ORCA quantum chemistry program package
     J. Chem. Phys. 2020 152(22), 224108
     doi.org/10.1063/5.0004608
  7. Neese, F.
     Software update: The ORCA program system—Version 5.0
     WIRES Comput. Molec. Sci. 2022 12(1), e1606
     doi.org/10.1002/wcms.1606

List of optional additional citations

  1. Neese, F.
     Approximate second-order SCF convergence for spin unrestricted wavefunctions
     Chem. Phys. Lett. 2000 325(1-3), 93-98
     doi.org/10.1016/s0009-2614(00)00662-x

Timings for individual modules:

Sum of individual times          ...   264237.543 sec (=4403.959 min)
Startup calculation              ...   107758.541 sec (=1795.976 min)  40.8 %
SCF iterations                   ...   143460.877 sec (=2391.015 min)  54.3 %
SCF Gradient evaluation          ...    13016.752 sec (= 216.946 min)   4.9 %
Geometry relaxation              ...        1.373 sec (=   0.023 min)   0.0 %
                             ****ORCA TERMINATED NORMALLY****
TOTAL RUN TIME: 3 days 1 hours 37 minutes 48 seconds 181 msec
