nohup: ignoring input

                                 *****************
                                 * O   R   C   A *
                                 *****************

                                            #,                                       
                                            ###                                      
                                            ####                                     
                                            #####                                    
                                            ######                                   
                                           ########,                                 
                                     ,,################,,,,,                         
                               ,,#################################,,                 
                          ,,##########################################,,             
                       ,#########################################, ''#####,          
                    ,#############################################,,   '####,        
                  ,##################################################,,,,####,       
                ,###########''''           ''''###############################       
              ,#####''   ,,,,##########,,,,          '''####'''          '####       
            ,##' ,,,,###########################,,,                        '##       
           ' ,,###''''                  '''############,,,                           
         ,,##''                                '''############,,,,        ,,,,,,###''
      ,#''                                            '''#######################'''  
     '                                                          ''''####''''         
             ,#######,   #######,   ,#######,      ##                                
            ,#'     '#,  ##    ##  ,#'     '#,    #''#        ,####,    ,#,          
            ##       ##  ##   ,#'  ##            #'  '#       #'       ,# #          
            ##       ##  #######   ##           ,######,      #####,      #          
            '#,     ,#'  ##    ##  '#,     ,#' ,#      #,     #,   #      #          
             '#######'   ##     ##  '#######'  #'      '#     '####' #    #          



                #########################################################
                #                        -***-                          #
                #          Department of theory and spectroscopy        #
                #                                                       #
                #                      Frank Neese                      #
                #                                                       #
                #     Directorship, Architecture, Infrastructure        #
                #                    SHARK, DRIVERS                     #
                #        Core code/Algorithms in most modules           #
                #                                                       #
                #        Max Planck Institute fuer Kohlenforschung      #
                #                Kaiser Wilhelm Platz 1                 #
                #                 D-45470 Muelheim/Ruhr                 #
                #                      Germany                          #
                #                                                       #
                #                  All rights reserved                  #
                #                        -***-                          #
                #########################################################


                         Program Version 6.1.0  -  RELEASE   -
                                (GIT: $679e74b$)
                          ($2025-06-10 18:02:51 +0200$)


 With contributions from (in alphabetic order):
[Max-Planck-Institut fuer Kohlenforschung]                               
  Daniel Aravena         : Magnetic Suceptibility                        
  Michael Atanasov       : Ab Initio Ligand Field Theory (pilot matlab implementation)
  Alexander A. Auer      : GIAO ZORA, VPT2 properties, NMR spectrum      
  Ute Becker             : All parallelization in ORCA, NUMFREQ, NUMCALC 
  Giovanni Bistoni       : ED, misc. LED, open-shell LED, HFLD           
  Dmytro Bykov           : pre 5.0 version of the SCF Hessian            
  Marcos Casanova-Páez   : Triplet and SCS-CIS(D). UHF-(DLPNO)-IP/EA/STEOM-CCSD. UHF-CVS-IP/STEOM-CCSD   
  Vijay G. Chilkuri      : MRCI spin determinant printing, contributions to CSF-ICE 
  Pauline Colinet        : FMM embedding                                 
  Dipayan Datta          : RHF DLPNO-CCSD density                        
  Achintya Kumar Dutta   : EOM-CC, STEOM-CC                              
  Nicolas Foglia         : Exact transition moments, OPA infrastructure, MCD improvements    
  Dmitry Ganyushin       : Spin-Orbit,Spin-Spin,Magnetic field MRCI      
  Miquel Garcia-Rates    : C-PCM and meta-GGA Hessian, CCSD/C-PCM, Gaussian charge scheme 
  Tiago L. C. Gouveia    : GS-ROHF, GS-ROCIS                             
  Yang Guo               : DLPNO-NEVPT2, F12-NEVPT2, CIM, IAO-localization        
  Andreas Hansen         : Spin unrestricted coupled pair/coupled cluster methods 
  Ingolf Harden          : AUTO-CI MPn and infrastructure                
  Benjamin Helmich-Paris : MC-RPA, TRAH-(SCF,CASSCF), AVAS, COSX integrals, SCF dyn. polar., MC-PDFT, srDFT 
  Lee Huntington         : MR-EOM, pCC                                   
  Robert Izsak           : Overlap fitted RIJCOSX, COSX-SCS-MP3, EOM     
  Riya Kayal             : Wick's Theorem for AUTO-CI, AUTO-CI UHF-CCSDT 
  Emily Kempfer          : AUTO-CI RHF CISDT and CCSDT, approximate NEVPT4
  Christian Kollmar      : KDIIS, OOCD, Brueckner-CCSD(T), CCSD density, CASPT2, CASPT2-K, improved NEVPT2 
  Axel Koslowski         : Symmetry handling                             
  Simone Kossmann        : meta-GGA functionals, TD-DFT gradient, OOMP2, (MP2 Hessian; deprecated post 5.0) 
  Lucas Lang             : DCDCAS, Hyperfine gauge corrections, ICE-SOC+SSC
  Marvin Lechner         : AUTO-CI (C++ implementation), FIC-MRCC        
  Spencer Leger          : CASSCF response                               
  Dagmar Lenk            : GEPOL surface, SMD, ORCA-2-JSON               
  Dimitrios Liakos       : Extrapolation schemes; Compound Job, Property file
  Dimitrios Manganas     : Further ROCIS development; embedding schemes. LFT, Crystal Embedding 
  Dimitrios Pantazis     : SARC Basis sets                               
  Anastasios Papadopoulos: AUTO-CI, single reference methods and gradients 
  Taras Petrenko         : pre 6.0 DFT Hessian and TD-DFT gradient,  ECA, NRVS 
  Petra Pikulova         : Analytic Raman intensities                    
  Peter Pinski           : DLPNO-MP2, DLPNO-MP2 Gradient                 
  Shashank Vittal Rao    : ES-AILFT, MagRelax                            
  Christoph Reimann      : Effective Core Potentials                     
  Marius Retegan         : Local ZFS, SOC                                
  Christoph Riplinger    : Optimizer, TS searches, QM/MM, DLPNO-CCSD(T), (RO)-DLPNO pert. Triples 
  Michael Roemelt        : Original ROCIS implementation, recursive CI coupling coefficients
  Masaaki Saitow         : Open-shell DLPNO-CCSD energy and density      
  Barbara Sandhoefer     : DKH picture change effects                    
  Yorick L. A. Schmerwitz: GMF and freeze-and-release deltaSCF, NEB S-IDPP initial path                    
  Kantharuban Sivalingam : CASSCF convergence/infrastructure, NEVPT2, NEVPT3, NEVPT4(SD), FIC-MRCI and CEPA variants
  Bernardo de Souza      : ESD, SOC TD-DFT                               
  Georgi L. Stoychev     : AutoAux, RI-MP2 NMR, DLPNO-MP2 response, X2C  
  Van Anh Tran           : RI-MP2 g-tensors                              
  Willem Van den Heuvel  : Paramagnetic NMR                              
  Zikuan Wang            : NOTCH, Electric field optimization            
  Frank Wennmohs         : Technical directorship and infrastructure     
  Hang Xu                : AUTO-CI-Response properties                   
                                                                         
[FACCTs GmbH]                                                            
  Markus Bursch, Nicolas Foglia, Miquel Garcia-Rates, Ingolf Harden, Hagen Neugebauer, Anastasios Papadopoulos, 
  Christoph Riplinger, Bernardo de Souza, Georgi L. Stoychev                                                    
                                                                 
  APM, various basis sets, CI-OPT, improved COSX, DLPNO-Multilevel,           
  DOCKER, DRACO, updates on ESD, Fragmentator, GOAT, IRC, LR-CPCM, L-BFGS, MBIS, meta-GGA TD-DFT gradient, ML-optimized integration grids, 
  MM, NACMEs, nearIR, NEB, NEB-TS, NL-DFT gradient (VV10), 2- and 3-layer-ONIOM, interface openCOSMO-RS, QMMM,   
  Crystal-QMMM, RESP, rigid body optimization, SF, symmetry and pop. for TD-DFT, various functionals, SOLVATOR                                   
                                                                         
[Other institutions]                                                     
  V. Asgeirsson          : NEB                                           
  Christoph Bannwarth    : sTDA-DFT, sTD-DFT, PBEh-3c, B97-3c, D3        
  Giovanni Bistoni       : ETS/NOCV, ADLD/ADEX, COVALED                  
  Martin Brehm           : Molecular dynamics                            
  Ronald Cardenas        : ETS/NOCV                                      
  Martina Colucci        : COVALED                                       
  Sebastian Ehlert       : rSCAN, r2SCAN, r2SCAN-3c, D4, dhf basis sets  
  Marvin Friede          : D4 for Fr, Ra, Ac-Lr                          
  Lars Goerigk           : TD-DFT with DH, B97 family of functionals     
  Stefan Grimme          : VdW corrections, initial TS optimization, DFT functionals, gCP, sTDA/sTD-DF 
  Waldemar Hujo          : DFT-NL                                        
  H. Jonsson             : NEB                                           
  Holger Kruse           : gCP                                           
  Marcel Mueller         : wB97X-3c, vDZP basis set                      
  Hagen Neugebauer       : wr2SCAN, Native XTB                           
  Gianluca Regni         : ADLD/ADEX                                     
  Tobias Risthaus        : pre 6.0 range-separated hybrid DFT and stability analysis
  Lukas Wittmann         : regularized MP2, r2SCAN double-hybrids, wr2SCAN        
                                                                         
We gratefully acknowledge several colleagues who have allowed us to      
interface, adapt or use parts of their codes:                            
  Ed Valeev, F. Pavosevic, A. Kumar             : LibInt (2-el integral package), F12 methods 
  Garnet Chan, S. Sharma, J. Yang, R. Olivares  : DMRG                   
  Ulf Ekstrom                                   : XCFun DFT Library      
  Mihaly Kallay                                 : mrcc  (arbitrary order and MRCC methods)
  Frank Weinhold                                : gennbo (NPA and NBO analysis)           
  Simon Mueller                                 : openCOSMO-RS                            
  Christopher J. Cramer and Donald G. Truhlar   : smd solvation model                     
  S Lehtola, MJT Oliveira, MAL Marques          : LibXC Library                           
  Liviu Ungur et al                             : ANISO software                          


 Your calculation uses the libint2 library for the computation of 2-el integrals
 For citations please refer to: http://libint.valeyev.net

 Your ORCA version has been built with support for libXC version: 7.0.0
 For citations please refer to: https://libxc.gitlab.io

 This ORCA versions uses:
   CBLAS   interface :  Fast vector & matrix operations
   LAPACKE interface :  Fast linear algebra routines
   SCALAPACK package :  Parallel linear algebra routines
   Shared memory     :  Shared parallel matrices
   BLAS/LAPACK       :  OpenBLAS 0.3.29  USE64BITINT DYNAMIC_ARCH NO_AFFINITY SkylakeX SINGLE_THREADED
        Core in use  :  SkylakeX
   Copyright (c) 2011-2014, The OpenBLAS Project


  ***********************************
  * Starting time: Wed Sep 24 19:03:12 2025
  * Host name:     computational-ch-1-genericvnf-vm-0
  * Process ID:    632396
  * Working dir.:  /home/ubuntu/Computational-Chemistry/DFT/iPP_1mer
  ***********************************

XCFun DFT library Copyright 2009-2010 Ulf Ekstrom and contributors.
See http://admol.org/xcfun for more information.
This is free software; see the source code for copying conditions.
There is ABSOLUTELY NO WARRANTY; not even for MERCHANTABILITY or FITNESS FOR A PARTICULAR PURPOSE.
For details see the documentation.
Scientific users of this library should cite U. Ekstrom, L. Visscher, R. Bast, A. J. Thorvaldsen and K. Ruud;
J.Chem.Theor.Comp. 2010, DOI: 10.1021/ct100117s
XCFun Version 0.99 

Warning: RI is on but no J-basis has been assigned. Assigning Def2/J (nothing to worry about!)
================================================================================

----- Orbital basis set information -----
Your calculation utilizes the basis: cc-pVDZ 
       H, B-Ne : Obtained from the ccRepo (grant-hill.group.shef.ac.uk/ccrepo) Feb. 2017
                 T. H. Dunning, Jr., J. Chem. Phys. 90, 1007 (1989)
            He : Obtained from the ccRepo (grant-hill.group.shef.ac.uk/ccrepo) Feb. 2017
                 D. E. Woon, T. H. Dunning, Jr., J. Chem. Phys. 100, 2975 (1994)
  Li-Be, Na-Mg : Obtained from the ccRepo (grant-hill.group.shef.ac.uk/ccrepo) Feb. 2017
                 B. P. Prascher, D. E. Woon, K. A. Peterson, T. H. Dunning, Jr., A. K. Wilson, Theor. Chem. Acc. 128, 69 (2011)
         Al-Ar : Obtained from the ccRepo (grant-hill.group.shef.ac.uk/ccrepo) Feb. 2017
                 D. E. Woon, T. H. Dunning, Jr., J. Chem. Phys. 98, 1358 (1993)
            Ca : Obtained from the Peterson Research Group Website (tyr0.chem.wsu.edu/~kipeters) Feb. 2017
                 J. Koput, K. A. Peterson, J. Phys. Chem. 106, 9595 (2002)
         Sc-Zn : Obtained from the ccRepo (grant-hill.group.shef.ac.uk/ccrepo) Feb. 2017
                 N. B. Balabanov, K. A. Peterson, J. Chem. Phys. 123, 064107 (2005)
                 N. B. Balabanov, K. A. Peterson, J. Chem. Phys. 125, 074110 (2006)
         Ga-Kr : Obtained from the ccRepo (grant-hill.group.shef.ac.uk/ccrepo) Feb. 2017
                 A. K. Wilson, D. E. Woon, K. A. Peterson, T. H. Dunning, Jr., J. Chem. Phys. 110, 7667 (1999)

----- AuxJ basis set information -----
Your calculation utilizes the auxiliary basis: def2/J
   H-Rn: F. Weigend, Phys. Chem. Chem. Phys. 8, 1057 (2006).
   Fr-Lr: K. Eichkorn, F. Weigend, O. Treutler, R. Ahlrichs; Theor. Chem. Acc. 97, 119 (1997).

================================================================================
                                        WARNINGS
                       Please study these warnings very carefully!
================================================================================

WARNING: Old DensityContainer found on disk!
         Will remove this file - 
         If you want to keep old densities, please start your calculation with a different basename. 


WARNING: The environment variable RSH_COMMAND is not set!
  ===> : All Displacements for the Numerical Hessian or Gradient calculation
         will be started on localhost

WARNING: Geometry Optimization
  ===> : Switching off AutoStart
         For restart on a previous wavefunction, please use MOREAD

================================================================================
                                       INPUT FILE
================================================================================
NAME = iPP_1mer.inp
|  1> ! CAM-B3LYP cc-pVDZ VeryTightSCF VeryTightOpt NumFreq
|  2> 
|  3> %pal
|  4>  nprocs 64
|  5> end
|  6> 
|  7> * xyz 0 1
|  8> C     -0.5916204639   18.6677891391   40.1581209697
|  9> C     -0.8460334639   18.6677891391   41.6784289697
| 10> C      0.5244325361   19.6236691391   39.7090849697
| 11> H     -0.3231488303   17.6751576637   39.8623070953
| 12> H     -1.4940384242   19.0073186475   39.6941579862
| 13> H      0.0338426402   18.3334656977   42.1872963299
| 14> H     -1.0887104165   19.6592309207   41.9994448611
| 15> H     -1.6598340300   18.0106707988   41.9038712853
| 16> H      1.4513224067   19.3221565597   40.1505206327
| 17> H      0.6111016243   19.5949876955   38.6429864958
| 18> H      0.2880659251   20.6195149020   40.0210499581
| 19> **                         ****END OF INPUT****
================================================================================

                       *****************************
                       * Geometry Optimization Run *
                       *****************************

Geometry optimization settings:
Update method            Update   .... BFGS
Choice of coordinates    CoordSys .... (2022) Redundant Internals
Initial Hessian          InHess   .... Almloef's Model
Max. no of cycles        MaxIter  .... 50

Convergence Tolerances:
Energy Change            TolE     ....  2.0000e-07 Eh
Max. Gradient            TolMAXG  ....  3.0000e-05 Eh/bohr
RMS Gradient             TolRMSG  ....  8.0000e-06 Eh/bohr
Max. Displacement        TolMAXD  ....  2.0000e-04 bohr
RMS Displacement         TolRMSD  ....  1.0000e-04 bohr
Strict Convergence                .... False

------------------------------------------------------------------------------
                        ORCA OPTIMIZATION COORDINATE SETUP
------------------------------------------------------------------------------

The optimization will be done in redundant internal coordinates (2022)
Making redundant internal coordinates   ...  (2022 redundants) done
Evaluating the initial hessian          ...  (Almloef) done
Evaluating the coordinates              ...  done
Calculating the B-matrix                .... done
Calculating the G-matrix                .... done
The number of degrees of freedom        ....   40

    -----------------------------------------------------------------
                    Redundant Internal Coordinates


    -----------------------------------------------------------------
         Definition                    Initial Value    Approx d2E/dq
    -----------------------------------------------------------------
      1. B(C   1,C   0)                  1.5414         0.358189   
      2. B(C   2,C   0)                  1.5365         0.364724   
      3. B(H   3,C   0)                  1.0700         0.387554   
      4. B(H   4,C   0)                  1.0700         0.387554   
      5. B(H   5,C   1)                  1.0700         0.387554   
      6. B(H   6,C   1)                  1.0700         0.387554   
      7. B(H   7,C   1)                  1.0700         0.387554   
      8. B(H   8,C   2)                  1.0700         0.387554   
      9. B(H   9,C   2)                  1.0700         0.387554   
     10. B(H  10,C   2)                  1.0700         0.387554   
     11. A(C   2,C   0,H   4)          106.7661         0.326970   
     12. A(C   1,C   0,C   2)          114.0865         0.359282   
     13. A(H   3,C   0,H   4)          112.7125         0.297665   
     14. A(C   2,C   0,H   3)          108.3054         0.326970   
     15. A(C   1,C   0,H   3)          108.3054         0.325998   
     16. A(C   1,C   0,H   4)          106.7661         0.325998   
     17. A(C   0,C   1,H   5)          109.4712         0.325998   
     18. A(H   6,C   1,H   7)          109.4712         0.297665   
     19. A(H   5,C   1,H   7)          109.4712         0.297665   
     20. A(C   0,C   1,H   7)          109.4712         0.325998   
     21. A(H   5,C   1,H   6)          109.4712         0.297665   
     22. A(C   0,C   1,H   6)          109.4712         0.325998   
     23. A(H   8,C   2,H   9)          109.4712         0.297665   
     24. A(C   0,C   2,H   9)          109.4712         0.326970   
     25. A(C   0,C   2,H   8)          109.4712         0.326970   
     26. A(H   9,C   2,H  10)          109.4712         0.297665   
     27. A(H   8,C   2,H  10)          109.4712         0.297665   
     28. A(C   0,C   2,H  10)          109.4712         0.326970   
     29. D(H   6,C   1,C   0,H   3)    178.3714         0.010301   
     30. D(H   6,C   1,C   0,C   2)     57.6899         0.010301   
     31. D(H   5,C   1,C   0,C   2)    -62.3101         0.010301   
     32. D(H   6,C   1,C   0,H   4)    -60.0000         0.010301   
     33. D(H   5,C   1,C   0,H   4)    180.0000         0.010301   
     34. D(H   5,C   1,C   0,H   3)     58.3714         0.010301   
     35. D(H   8,C   2,C   0,C   1)     62.3101         0.010653   
     36. D(H   9,C   2,C   0,H   4)    -60.0000         0.010653   
     37. D(H   9,C   2,C   0,H   3)     61.6286         0.010653   
     38. D(H   9,C   2,C   0,C   1)   -177.6899         0.010653   
     39. D(H   8,C   2,C   0,H   4)    180.0000         0.010653   
     40. D(H   8,C   2,C   0,H   3)    -58.3714         0.010653   
    -----------------------------------------------------------------

Number of atoms                         .... 11
Number of degrees of freedom            .... 40


         *************************************************************
         *                GEOMETRY OPTIMIZATION CYCLE   1            *
         *************************************************************
---------------------------------
CARTESIAN COORDINATES (ANGSTROEM)
---------------------------------
  C     -0.591620   18.667789   40.158121
  C     -0.846033   18.667789   41.678429
  C      0.524433   19.623669   39.709085
  H     -0.323149   17.675158   39.862307
  H     -1.494038   19.007319   39.694158
  H      0.033843   18.333466   42.187296
  H     -1.088710   19.659231   41.999445
  H     -1.659834   18.010671   41.903871
  H      1.451322   19.322157   40.150521
  H      0.611102   19.594988   38.642986
  H      0.288066   20.619515   40.021050

----------------------------
CARTESIAN COORDINATES (A.U.)
----------------------------
  NO LB      ZA    FRAG     MASS         X           Y           Z
   0 C     6.0000    0    12.011   -1.118001   35.277009   75.887851
   1 C     6.0000    0    12.011   -1.598772   35.277009   78.760816
   2 C     6.0000    0    12.011    0.991034   37.083360   75.039296
   3 H     1.0000    0     1.008   -0.610663   33.401207   75.328843
   4 H     1.0000    0     1.008   -2.823323   35.918627   75.011088
   5 H     1.0000    0     1.008    0.063953   34.645229   79.722436
   6 H     1.0000    0     1.008   -2.057365   37.150562   79.367449
   7 H     1.0000    0     1.008   -3.136632   34.035235   79.186841
   8 H     1.0000    0     1.008    2.742602   36.513584   75.873488
   9 H     1.0000    0     1.008    1.154815   37.029160   73.024661
  10 H     1.0000    0     1.008    0.544366   38.965236   75.628824

--------------------------------
INTERNAL COORDINATES (ANGSTROEM)
--------------------------------
 C      0   0   0     0.000000000000     0.00000000     0.00000000
 C      1   0   0     1.541448146852     0.00000000     0.00000000
 C      1   2   0     1.536526668335   114.08649698     0.00000000
 H      1   2   3     1.070000052472   108.30539850   120.68151101
 H      1   2   3     1.070000052432   106.76608531   242.31011169
 H      2   1   3     1.070000052483   109.47122064   297.68988831
 H      2   1   3     1.070000052410   109.47122064    57.68988831
 H      2   1   3     1.070000052433   109.47122064   177.68988832
 H      3   1   2     1.070000052489   109.47122064    62.31011169
 H      3   1   2     1.070000052387   109.47122064   182.31011168
 H      3   1   2     1.070000052462   109.47122064   302.31011169

---------------------------
INTERNAL COORDINATES (A.U.)
---------------------------
 C      0   0   0     0.000000000000     0.00000000     0.00000000
 C      1   0   0     2.912914847190     0.00000000     0.00000000
 C      1   2   0     2.903614600620   114.08649698     0.00000000
 H      1   2   3     2.022007062454   108.30539850   120.68151101
 H      1   2   3     2.022007062378   106.76608531   242.31011169
 H      2   1   3     2.022007062473   109.47122064   297.68988831
 H      2   1   3     2.022007062336   109.47122064    57.68988831
 H      2   1   3     2.022007062380   109.47122064   177.68988832
 H      3   1   2     2.022007062485   109.47122064    62.31011169
 H      3   1   2     2.022007062293   109.47122064   182.31011168
 H      3   1   2     2.022007062435   109.47122064   302.31011169

---------------------
BASIS SET INFORMATION
---------------------
There are 2 groups of distinct atoms

 Group   1 Type C   : 17s4p1d contracted to 3s2p1d pattern {881/31/1}
 Group   2 Type H   : 4s1p contracted to 2s1p pattern {31/1}

Atom   0C    basis set group =>   1
Atom   1C    basis set group =>   1
Atom   2C    basis set group =>   1
Atom   3H    basis set group =>   2
Atom   4H    basis set group =>   2
Atom   5H    basis set group =>   2
Atom   6H    basis set group =>   2
Atom   7H    basis set group =>   2
Atom   8H    basis set group =>   2
Atom   9H    basis set group =>   2
Atom  10H    basis set group =>   2
---------------------------------
AUXILIARY/J BASIS SET INFORMATION
---------------------------------
There are 2 groups of distinct atoms

 Group   1 Type C   : 12s5p4d2f1g contracted to 6s4p3d1f1g pattern {711111/2111/211/2/1}
 Group   2 Type H   : 5s2p1d contracted to 3s1p1d pattern {311/2/1}

Atom   0C    basis set group =>   1
Atom   1C    basis set group =>   1
Atom   2C    basis set group =>   1
Atom   3H    basis set group =>   2
Atom   4H    basis set group =>   2
Atom   5H    basis set group =>   2
Atom   6H    basis set group =>   2
Atom   7H    basis set group =>   2
Atom   8H    basis set group =>   2
Atom   9H    basis set group =>   2
Atom  10H    basis set group =>   2


           ************************************************************
           *        Program running with 64 parallel MPI-processes    *
           *              working on a common directory               *
           ************************************************************
------------------------------------------------------------------------------
                             ORCA STARTUP CALCULATIONS
                           -- RI-GTO INTEGRALS CHOSEN --
------------------------------------------------------------------------------
------------------------------------------------------------------------------
                   ___                                                        
                  /   \      - P O W E R E D   B Y -                         
                 /     \                                                     
                 |  |  |   _    _      __       _____    __    __             
                 |  |  |  | |  | |    /  \     |  _  \  |  |  /  |          
                  \  \/   | |  | |   /    \    | | | |  |  | /  /          
                 / \  \   | |__| |  /  /\  \   | |_| |  |  |/  /          
                |  |  |   |  __  | /  /__\  \  |    /   |      \           
                |  |  |   | |  | | |   __   |  |    \   |  |\   \          
                \     /   | |  | | |  |  |  |  | |\  \  |  | \   \       
                 \___/    |_|  |_| |__|  |__|  |_| \__\ |__|  \__/        
                                                                              
                      - O R C A' S   B I G   F R I E N D -                    
                                      &                                       
                       - I N T E G R A L  F E E D E R -                       
                                                                              
 v1 FN, 2020, v2 2021, v3 2022-2024                                           
------------------------------------------------------------------------------


----------------------
SHARK INTEGRAL PACKAGE
----------------------

Number of atoms                             ...     11
Number of basis functions                   ...    100
Number of shells                            ...     60
Maximum angular momentum                    ...      2
Integral batch strategy                     ... SHARK/LIBINT Hybrid
RI-J (if used) integral strategy            ... SPLIT-RIJ (Revised 2003 algorithm where possible)
Printlevel                                  ...      1
Contraction scheme used                     ... PARTIAL GENERAL contraction
Prescreening option                         ... SCHWARTZ
   Thresh                                   ... 1.000e-12
   Tcut                                     ... 1.000e-14
   Tpresel                                  ... 1.000e-14 
Coulomb Range Separation                    ... NOT USED
Exchange Range Separation                   ... Long Range
   Mu parameter                             ... 3.300e-01
   Scaling (regular/separated)              ... 1.900e-01 4.600e-01
Robust (split-)RI terms used:
  metric    (central integrals)             ... YES
  density   (r.h.s.  integrals)             ... YES
  potential (l.h.s.  integrals)             ... YES
Multipole approximations                    ... NOT USED
Finite Nucleus Model                        ... NOT USED
CABS basis                                  ... NOT available
Auxiliary Coulomb fitting basis             ... AVAILABLE
   # of basis functions in Aux-J            ...    235
   # of shells in Aux-J                     ...     85
   Maximum angular momentum in Aux-J        ...      4
Auxiliary J/K fitting basis                 ... NOT available
Auxiliary Correlation fitting basis         ... NOT available
Auxiliary 'external' fitting basis          ... NOT available

Checking pre-screening integrals            ... done (  0.0 sec) Dimension = 60
Save PGC pre-screening integrals            ... done (  0.0 sec) Dimension = 60
Calculate PGC overlap integrals             ... done (  0.0 sec) Dimension = 42
Calculating pre-screening integrals (ORCA)  ... done (  0.2 sec) Dimension = 42
Shell pair information
Shell pair cut-off parameter TPreSel        ...   1.0e-14
Total number of shell pairs                 ...      1830
Shell pairs after pre-screening             ...      1708
Total number of primitive shell pairs       ...      3436
Primitive shell pairs kept                  ...      2962
          la=0 lb=0:    827 shell pairs
          la=1 lb=0:    599 shell pairs
          la=1 lb=1:    105 shell pairs
          la=2 lb=0:    129 shell pairs
          la=2 lb=1:     42 shell pairs
          la=2 lb=2:      6 shell pairs

Checking whether 4 symmetric matrices of dimension 100 fit in memory
:Max Core in MB      =   4096.00
 MB in use           =      5.18
 MB left             =   4090.82
 MB needed           =      0.15
 Data fit in memory  = YES
Calculating RI/J V-Matrix + Cholesky decomp.... done (  0.1 sec)
Calculating Nuclear repulsion               ... done (  0.0 sec) ENN=     83.025858417071 Eh

Diagonalization of the overlap matrix:
Smallest eigenvalue                        ... 5.699e-03
Time for diagonalization                   ...    0.044 sec
Threshold for overlap eigenvalues          ... 1.000e-07
Number of eigenvalues below threshold      ... 0
Time for construction of square roots      ...    0.104 sec
Total time needed                          ...    0.360 sec

-------------------
DFT GRID GENERATION
-------------------

General Integration Accuracy     IntAcc      ... 4.388
Radial Grid Type                 RadialGrid  ... OptM3 with GC (2021)
Angular Grid (max. ang.)         AngularGrid ... 4 (Lebedev-302)
Angular grid pruning method      GridPruning ... 4 (adaptive)
Weight generation scheme         WeightScheme... mBecke (2022)
Basis function cutoff            BFCut       ... 1.0000e-12
Integration weight cutoff        WCut        ... 1.0000e-14
Partially contracted basis set               ... off
Rotationally invariant grid construction     ... off
Angular grids for H and He will be reduced by one unit

Total number of grid points                  ...    44022
Total number of batches                      ...      693
Average number of points per batch           ...       63
Average number of grid points per atom       ...     4002

---------------------
SHARK GRID GENERATION
---------------------

General Integration Accuracy     IntAcc      ... 4.388
Radial Grid Type                 RadialGrid  ... OptM3 with GC (2021)
Angular Grid (max. ang.)         AngularGrid ... 4 (Lebedev-302)
Angular grid pruning method      GridPruning ... 4 (adaptive)
Weight generation scheme         WeightScheme... mBecke (2022)
Basis function cutoff            BFCut       ... 1.0000e-12
Integration weight cutoff        WCut        ... 1.0000e-14
Partially contracted basis set               ... off
Rotationally invariant grid construction     ... off
Angular grids for H and He will be reduced by one unit
Steep s-basis detected: some atoms will have their radial
                        grid points doubled.

Total number of grid points                  ...    62372
Total number of batches                      ...      979
Average number of points per batch           ...       63
Average number of grid points per atom       ...     5670

--------------------
COSX GRID GENERATION
--------------------

GRIDX 1
-------
General Integration Accuracy     IntAcc      ... 3.816
Radial Grid Type                 RadialGrid  ... OptM3 with GC (2021)
Angular Grid (max. ang.)         AngularGrid ... 1 (Lebedev-50)
Angular grid pruning method      GridPruning ... 4 (adaptive)
Weight generation scheme         WeightScheme... mBecke (2022)
Basis function cutoff            BFCut       ... 1.0000e-12
Integration weight cutoff        WCut        ... 1.0000e-14
Partially contracted basis set               ... on
Rotationally invariant grid construction     ... off
Angular grids for H and He will be reduced by one unit

Total number of grid points                  ...     5695
Total number of batches                      ...       52
Average number of points per batch           ...      109
Average number of grid points per atom       ...      518
UseSFitting                                  ... on

GRIDX 2
-------
General Integration Accuracy     IntAcc      ... 4.020
Radial Grid Type                 RadialGrid  ... OptM3 with GC (2021)
Angular Grid (max. ang.)         AngularGrid ... 2 (Lebedev-110)
Angular grid pruning method      GridPruning ... 4 (adaptive)
Weight generation scheme         WeightScheme... mBecke (2022)
Basis function cutoff            BFCut       ... 1.0000e-12
Integration weight cutoff        WCut        ... 1.0000e-14
Partially contracted basis set               ... on
Rotationally invariant grid construction     ... off
Angular grids for H and He will be reduced by one unit

Total number of grid points                  ...    11655
Total number of batches                      ...       97
Average number of points per batch           ...      120
Average number of grid points per atom       ...     1060
UseSFitting                                  ... on

GRIDX 3
-------
General Integration Accuracy     IntAcc      ... 4.338
Radial Grid Type                 RadialGrid  ... OptM3 with GC (2021)
Angular Grid (max. ang.)         AngularGrid ... 3 (Lebedev-194)
Angular grid pruning method      GridPruning ... 4 (adaptive)
Weight generation scheme         WeightScheme... mBecke (2022)
Basis function cutoff            BFCut       ... 1.0000e-12
Integration weight cutoff        WCut        ... 1.0000e-14
Partially contracted basis set               ... on
Rotationally invariant grid construction     ... off
Angular grids for H and He will be reduced by one unit

Total number of grid points                  ...    25537
Total number of batches                      ...      204
Average number of points per batch           ...      125
Average number of grid points per atom       ...     2322
UseSFitting                                  ... on
Grids setup in   9.0 sec
Initializing property integral containers    ... done (  0.1 sec)

SHARK setup successfully completed in  10.6 seconds

Maximum memory used throughout the entire STARTUP-calculation: 16.7 MB


           ************************************************************
           *        Program running with 64 parallel MPI-processes    *
           *              working on a common directory               *
           ************************************************************
-------------------------------------------------------------------------------
                                 ORCA GUESS
                   Start orbitals & Density for SCF / CASSCF
-------------------------------------------------------------------------------

------------
SCF SETTINGS
------------
Hamiltonian:
 Density Functional     Method          .... DFT(GTOs)
 Exchange Functional    Exchange        .... WB88
 Correlation Functional Correlation     .... LYP
 LDA part of GGA corr.  LDAOpt          .... VWN-5
 Gradients option       PostSCFGGA      .... off
 Hybrid DFT is turned on
   Fraction HF Exchange ScalHFX         ....  0.190000
   Scaling of DF-GGA-X  ScalDFX         ....  0.350000
   Scaling of DF-GGA-C  ScalDFC         ....  0.810000
   Scaling of DF-LDA-C  ScalLDAC        ....  1.000000
   Perturbative correction              ....  0.000000
 Long-range corrected/Screened/Range-Separated Hybrid DFT is turned on
   Amount of maximum screened exact exchange              ....  0.460000
   Range separation parameter mu (erf(mu*r12)/r12)        ....  0.330000
 RI-approximation to the Coulomb term is turned on
   Number of AuxJ basis functions       .... 235
   RIJ-COSX (HFX calculated with COS-X)).... on


General Settings:
 Integral files         IntName         .... iPP_1mer
 Hartree-Fock type      HFTyp           .... RHF
 Total Charge           Charge          ....    0
 Multiplicity           Mult            ....    1
 Number of Electrons    NEL             ....   26
 Basis Dimension        Dim             ....   82
 Nuclear Repulsion      ENuc            ....     83.0258584171 Eh

Convergence Acceleration:
 AO-DIIS                CNVDIIS         .... on
   Start iteration      DIISMaxIt       ....    12
   Startup error        DIISStart       ....  0.200000
   # of expansion vecs  DIISMaxEq       ....     5
   Bias factor          DIISBfac        ....   1.050
   Max. coefficient     DIISMaxC        ....  10.000
 MO-DIIS                CNVKDIIS        .... off
 Trust-Rad. Augm. Hess. CNVTRAH         .... auto
   Auto Start mean grad. ratio tolernc. ....  1.125000
   Auto Start start iteration           ....    50
   Auto Start num. interpolation iter.  ....    10
   Max. Number of Micro iterations      ....    24
   Max. Number of Macro iterations      .... Maxiter - #DIIS iter
   Number of Davidson start vectors     ....     2
   Converg. threshold    (grad. norm)   ....   2.000e-06
   Grad. Scal. Fac. for Micro threshold ....   0.100
   Minimum threshold for Micro iter.    ....   1.000e-02
   NR start threshold (gradient norm)   ....   1.000e-04
   Initial trust radius                 ....   0.400
   Minimum AH scaling param. (alpha)    ....   1.000
   Maximum AH scaling param. (alpha)    .... 1000.000
   Quad. conv. algorithm                .... NR
   White noise on init. David. guess    .... on
   Maximum white noise                  ....   0.010
   Pseudo random numbers                .... off
   Inactive MOs                         .... canonical
   Orbital update algorithm             .... Taylor
   Preconditioner                       .... Diag
   Full preconditioner red. dimension   ....   250
 SOSCF                 CNVSOSCF           .... on
   Start iteration     SOSCFMaxIt         ....   150
   Startup grad/error  SOSCFStart         ....  0.003300
   Hessian update      SOSCFHessUp        .... L-BFGS
   Autom. constraints  SOSCFAutoConstrain .... off
 Level Shifting         CNVShift        .... on
   Level shift para.    LevelShift      ....    0.2500
   Turn off err/grad.   ShiftErr        ....    0.0010
 Zerner damping         CNVZerner       .... off
 Static damping         CNVDamp         .... on
   Fraction old density DampFac         ....    0.7000
   Max. Damping (<1)    DampMax         ....    0.9800
   Min. Damping (>=0)   DampMin         ....    0.0000
   Turn off err/grad.   DampErr         ....    0.1000

SCF Procedure:
 Maximum # iterations   MaxIter         ....   125
 SCF integral mode      SCFMode         .... Direct
   Integral package                     .... SHARK and LIBINT hybrid scheme
 Reset frequency        DirectResetFreq ....    20
 Integral Threshold     Thresh          ....  1.000e-12 Eh
 Primitive CutOff       TCut            ....  1.000e-14 Eh

Convergence Tolerance:
 Convergence Check Mode ConvCheckMode   .... Total+1el-Energy
 Convergence forced     ConvForced      .... 0
 Energy Change          TolE            ....  1.000e-09 Eh
 1-El. energy change                    ....  1.000e-06 Eh
 Orbital Gradient       TolG            ....  2.000e-06
 Orbital Rotation angle TolX            ....  2.000e-06
 DIIS Error             TolErr          ....  1.000e-08

------------------------------
INITIAL GUESS: MODEL POTENTIAL
------------------------------
Loading Hartree-Fock densities                     ... done
Calculating cut-offs                               ... done
Initializing the effective Hamiltonian             ... done
Setting up the integral package (SHARK)            ... done
Starting the Coulomb interaction                   ... done (   0.5 sec)
Making the grid                                    ... done (   0.7 sec)
Mapping shells                                     ... done
Starting the XC term evaluation                    ... done (   0.1 sec)
  promolecular density results
     # of electrons  =     25.996464911
     EX              =    -17.710046235
     EC              =     -0.820280361
     EX+EC           =    -18.530326596
Transforming the Hamiltonian                       ... done (   0.3 sec)
Diagonalizing the Hamiltonian                      ... done (   0.0 sec)
Back transforming the eigenvectors                 ... done (   0.0 sec)
Now organizing SCF variables                       ... done
                      ------------------
                      INITIAL GUESS DONE (   2.7 sec)
                      ------------------
             **** ENERGY FILE WAS UPDATED (iPP_1mer.en.tmp) ****
Finished Guess after   4.9 sec
Maximum memory used throughout the entire GUESS-calculation: 7.4 MB


           ************************************************************
           *        Program running with 64 parallel MPI-processes    *
           *              working on a common directory               *
           ************************************************************

-------------------------------------------------------------------------------------------
                                      ORCA LEAN-SCF
                              memory conserving SCF solver
-------------------------------------------------------------------------------------------

----------------------------------------D-I-I-S--------------------------------------------
Iteration    Energy (Eh)           Delta-E    RMSDP     MaxDP     DIISErr   Damp  Time(sec)
-------------------------------------------------------------------------------------------
               ***  Starting incremental Fock matrix formation  ***
    1    -118.9118910117022523     0.00e+00  2.47e-02  5.02e-02  1.72e-01  0.700   2.8
    2    -118.9710308272682511    -5.91e-02  1.95e-02  3.52e-02  9.93e-02  0.700   6.1
                               ***Turning on AO-DIIS***
    3    -118.9999554839270246    -2.89e-02  9.52e-03  1.29e-02  4.71e-02  0.700   3.5
    4    -119.0166974449336266    -1.67e-02  1.91e-02  2.76e-02  2.82e-02  0.000   3.2
    5    -119.0520735234627097    -3.54e-02  1.06e-03  2.23e-03  3.33e-03  0.000   1.6
                              *** Initializing SOSCF ***
---------------------------------------S-O-S-C-F--------------------------------------
Iteration    Energy (Eh)           Delta-E    RMSDP     MaxDP     MaxGrad    Time(sec)
--------------------------------------------------------------------------------------
    6    -119.0521288355800920    -5.53e-05  4.26e-04  7.55e-04  7.70e-04     5.6
               *** Restarting incremental Fock matrix formation ***
    7    -119.0520980624880139     3.08e-05  2.39e-04  4.22e-04  1.34e-04     4.9
    8    -119.0520984458478182    -3.83e-07  9.80e-05  1.80e-04  6.37e-05     1.5
    9    -119.0520985440948749    -9.82e-08  2.08e-05  3.65e-05  1.40e-05     3.6
   10    -119.0520985472750937    -3.18e-09  3.18e-06  5.37e-06  3.09e-06     4.1
   11    -119.0520985476461107    -3.71e-10  1.62e-06  2.46e-06  1.49e-06     2.7
                 **** Energy Check signals convergence ****

               *****************************************************
               *                     SUCCESS                       *
               *           SCF CONVERGED AFTER  11 CYCLES          *
               *****************************************************

Recomputing exchange energy using gridx3       ... done (    0.234 sec)
Old exchange energy                            :     -5.520316532 Eh
New exchange energy                            :     -5.520310308 Eh
Exchange energy change after final integration :      0.000006224 Eh
Total energy after final integration           :   -119.052092323 Eh
             **** ENERGY FILE WAS UPDATED (iPP_1mer.en.tmp) ****

----------------
TOTAL SCF ENERGY
----------------

Total Energy       :       -119.05209232315399 Eh           -3239.57213 eV

Components:
Nuclear Repulsion  :         83.02585841707138 Eh            2259.24847 eV
Electronic Energy  :       -202.07795696462614 Eh           -5498.82076 eV
One Electron Energy:       -322.58920899861653 Eh           -8778.09865 eV
Two Electron Energy:        120.51125203399039 Eh            3279.27788 eV

Virial components:
Potential Energy   :       -237.34285890641399 Eh           -6458.42753 eV
Kinetic Energy     :        118.29076658326001 Eh            3218.85540 eV
Virial Ratio       :          2.00643605381793

DFT components:
N(Alpha)           :       13.000002444693 electrons
N(Beta)            :       13.000002444693 electrons
N(Total)           :       26.000004889385 electrons
E(XC)              :      -13.734334745322 Eh       

---------------
SCF CONVERGENCE
---------------

  Last Energy change         ...    3.7102e-10  Tolerance :   1.0000e-09
  Last MAX-Density change    ...    2.4581e-06  Tolerance :   1.0000e-08
  Last RMS-Density change    ...    1.6171e-06  Tolerance :   1.0000e-09
  Last DIIS Error            ...    7.6979e-04  Tolerance :   1.0000e-08
  Last Orbital Gradient      ...    1.4857e-06  Tolerance :   2.0000e-06
  Last Orbital Rotation      ...    2.1159e-06  Tolerance :   2.0000e-06


----------------
ORBITAL ENERGIES
----------------

  NO   OCC          E(Eh)            E(eV) 
   0   2.0000     -10.244519      -278.7675 
   1   2.0000     -10.236634      -278.5530 
   2   2.0000     -10.236380      -278.5461 
   3   2.0000      -0.862138       -23.4600 
   4   2.0000      -0.762671       -20.7533 
   5   2.0000      -0.658220       -17.9111 
   6   2.0000      -0.533947       -14.5294 
   7   2.0000      -0.501547       -13.6478 
   8   2.0000      -0.464322       -12.6348 
   9   2.0000      -0.450474       -12.2580 
  10   2.0000      -0.396937       -10.8012 
  11   2.0000      -0.395210       -10.7542 
  12   2.0000      -0.387139       -10.5346 
  13   0.0000       0.107601         2.9280 
  14   0.0000       0.155966         4.2441 
  15   0.0000       0.160225         4.3599 
  16   0.0000       0.163670         4.4537 
  17   0.0000       0.187910         5.1133 
  18   0.0000       0.203665         5.5420 
  19   0.0000       0.212538         5.7834 
  20   0.0000       0.224808         6.1173 
  21   0.0000       0.257424         7.0049 
  22   0.0000       0.309011         8.4086 
  23   0.0000       0.449439        12.2299 
*Only the first 10 virtual orbitals were printed.

                    ********************************
                    * MULLIKEN POPULATION ANALYSIS *
                    ********************************

-----------------------
MULLIKEN ATOMIC CHARGES
-----------------------
   0 C :   -0.065021
   1 C :   -0.009421
   2 C :   -0.008211
   3 H :    0.006038
   4 H :    0.005967
   5 H :    0.012066
   6 H :    0.011919
   7 H :    0.011537
   8 H :    0.012006
   9 H :    0.011457
  10 H :    0.011662
Sum of atomic charges:   -0.0000000

--------------------------------
MULLIKEN REDUCED ORBITAL CHARGES
--------------------------------
  0 C s       :     3.057358  s :     3.057358
      pz      :     0.983365  p :     2.936008
      px      :     0.977698
      py      :     0.974945
      dz2     :     0.017018  d :     0.071655
      dxz     :     0.016547
      dyz     :     0.012383
      dx2y2   :     0.014877
      dxy     :     0.010831

  1 C s       :     2.993941  s :     2.993941
      pz      :     0.986686  p :     2.966049
      px      :     0.989123
      py      :     0.990239
      dz2     :     0.012377  d :     0.049431
      dxz     :     0.012402
      dyz     :     0.010167
      dx2y2   :     0.006237
      dxy     :     0.008248

  2 C s       :     2.992183  s :     2.992183
      pz      :     0.983904  p :     2.966286
      px      :     0.991586
      py      :     0.990796
      dz2     :     0.013571  d :     0.049742
      dxz     :     0.007194
      dyz     :     0.004464
      dx2y2   :     0.015900
      dxy     :     0.008614

  3 H s       :     0.965987  s :     0.965987
      pz      :     0.006135  p :     0.027975
      px      :     0.006214
      py      :     0.015626

  4 H s       :     0.965986  s :     0.965986
      pz      :     0.007545  p :     0.028048
      px      :     0.013778
      py      :     0.006725

  5 H s       :     0.958490  s :     0.958490
      pz      :     0.008049  p :     0.029444
      px      :     0.013790
      py      :     0.007606

  6 H s       :     0.958658  s :     0.958658
      pz      :     0.006413  p :     0.029423
      px      :     0.007105
      py      :     0.015905

  7 H s       :     0.959023  s :     0.959023
      pz      :     0.005861  p :     0.029440
      px      :     0.012916
      py      :     0.010662

  8 H s       :     0.958543  s :     0.958543
      pz      :     0.008232  p :     0.029450
      px      :     0.014495
      py      :     0.006724

  9 H s       :     0.959095  s :     0.959095
      pz      :     0.017539  p :     0.029448
      px      :     0.005920
      py      :     0.005989

 10 H s       :     0.958905  s :     0.958905
      pz      :     0.007321  p :     0.029433
      px      :     0.006207
      py      :     0.015905



                     *******************************
                     * LOEWDIN POPULATION ANALYSIS *
                     *******************************

----------------------
LOEWDIN ATOMIC CHARGES
----------------------
   0 C :   -0.045635
   1 C :   -0.061655
   2 C :   -0.061907
   3 H :    0.019324
   4 H :    0.019990
   5 H :    0.020305
   6 H :    0.020681
   7 H :    0.023787
   8 H :    0.020419
   9 H :    0.023937
  10 H :    0.020754

-------------------------------
LOEWDIN REDUCED ORBITAL CHARGES
-------------------------------
  0 C s       :     2.778708  s :     2.778708
      pz      :     1.009928  p :     3.074070
      px      :     1.029208
      py      :     1.034934
      dz2     :     0.047173  d :     0.192856
      dxz     :     0.041828
      dyz     :     0.030172
      dx2y2   :     0.040841
      dxy     :     0.032842

  1 C s       :     2.778858  s :     2.778858
      pz      :     1.016932  p :     3.134611
      px      :     1.057853
      py      :     1.059825
      dz2     :     0.037623  d :     0.148187
      dxz     :     0.033966
      dyz     :     0.025597
      dx2y2   :     0.022044
      dxy     :     0.028957

  2 C s       :     2.777828  s :     2.777828
      pz      :     1.052681  p :     3.134769
      px      :     1.038083
      py      :     1.044006
      dz2     :     0.043824  d :     0.149310
      dxz     :     0.022368
      dyz     :     0.014066
      dx2y2   :     0.042051
      dxy     :     0.027002

  3 H s       :     0.897104  s :     0.897104
      pz      :     0.020667  p :     0.083571
      px      :     0.019627
      py      :     0.043277

  4 H s       :     0.896240  s :     0.896240
      pz      :     0.024187  p :     0.083770
      px      :     0.039070
      py      :     0.020513

  5 H s       :     0.896416  s :     0.896416
      pz      :     0.025525  p :     0.083279
      px      :     0.037551
      py      :     0.020203

  6 H s       :     0.896120  s :     0.896120
      pz      :     0.021383  p :     0.083200
      px      :     0.018861
      py      :     0.042955

  7 H s       :     0.893139  s :     0.893139
      pz      :     0.020037  p :     0.083074
      px      :     0.034495
      py      :     0.028542

  8 H s       :     0.896345  s :     0.896345
      pz      :     0.022579  p :     0.083237
      px      :     0.040418
      py      :     0.020240

  9 H s       :     0.893026  s :     0.893026
      pz      :     0.046770  p :     0.083037
      px      :     0.018339
      py      :     0.017929

 10 H s       :     0.896092  s :     0.896092
      pz      :     0.019987  p :     0.083153
      px      :     0.019524
      py      :     0.043642



                      *****************************
                      * MAYER POPULATION ANALYSIS *
                      *****************************

  NA   - Mulliken gross atomic population
  ZA   - Total nuclear charge
  QA   - Mulliken gross atomic charge
  VA   - Mayer's total valence
  BVA  - Mayer's bonded valence
  FA   - Mayer's free valence

  ATOM       NA         ZA         QA         VA         BVA        FA
  0 C      6.0650     6.0000    -0.0650     4.1635     4.1635    -0.0000
  1 C      6.0094     6.0000    -0.0094     4.0336     4.0336    -0.0000
  2 C      6.0082     6.0000    -0.0082     4.0340     4.0340    -0.0000
  3 H      0.9940     1.0000     0.0060     0.9663     0.9663    -0.0000
  4 H      0.9940     1.0000     0.0060     0.9656     0.9656    -0.0000
  5 H      0.9879     1.0000     0.0121     0.9793     0.9793     0.0000
  6 H      0.9881     1.0000     0.0119     0.9802     0.9802     0.0000
  7 H      0.9885     1.0000     0.0115     0.9786     0.9786    -0.0000
  8 H      0.9880     1.0000     0.0120     0.9793     0.9793     0.0000
  9 H      0.9885     1.0000     0.0115     0.9786     0.9786    -0.0000
 10 H      0.9883     1.0000     0.0117     0.9803     0.9803    -0.0000

  Mayer bond orders larger than 0.100000
B(  0-C ,  1-C ) :   1.0966 B(  0-C ,  2-C ) :   1.0976 B(  0-C ,  3-H ) :   0.9583 
B(  0-C ,  4-H ) :   0.9580 B(  1-C ,  5-H ) :   0.9756 B(  1-C ,  6-H ) :   0.9747 
B(  1-C ,  7-H ) :   0.9718 B(  2-C ,  8-H ) :   0.9754 B(  2-C ,  9-H ) :   0.9714 
B(  2-C , 10-H ) :   0.9745 

-------
TIMINGS
-------

Total SCF time: 0 days 0 hours 0 min 48 sec 

Total time                  ....      48.121 sec
Sum of individual times     ....      45.099 sec  ( 93.7%)

SCF preparation             ....       3.433 sec  (  7.1%)
Fock matrix formation       ....      27.786 sec  ( 57.7%)
  Startup                   ....       0.146 sec  (  0.5% of F)
  Split-RI-J                ....       1.642 sec  (  5.9% of F)
  Chain of spheres X        ....      14.823 sec  ( 53.3% of F)
  XC integration            ....       8.143 sec  ( 29.3% of F)
    XC Preparation          ....       0.000 sec  (  0.0% of XC)
    Basis function eval.    ....       0.045 sec  (  0.6% of XC)
    Density eval.           ....       0.027 sec  (  0.3% of XC)
    XC-Functional eval.     ....       0.021 sec  (  0.3% of XC)
    XC-Potential eval.      ....       0.019 sec  (  0.2% of XC)
Diagonalization             ....       0.000 sec  (  0.0%)
Density matrix formation    ....       1.779 sec  (  3.7%)
Total Energy calculation    ....       0.892 sec  (  1.9%)
Population analysis         ....       0.358 sec  (  0.7%)
Orbital Transformation      ....       1.549 sec  (  3.2%)
Orbital Orthonormalization  ....       0.000 sec  (  0.0%)
DIIS solution               ....       5.605 sec  ( 11.6%)
SOSCF solution              ....       3.697 sec  (  7.7%)
Finished LeanSCF after  48.3 sec

Maximum memory used throughout the entire LEANSCF-calculation: 8.8 MB

-------------------------   --------------------
FINAL SINGLE POINT ENERGY      -119.052092323154
-------------------------   --------------------



           ************************************************************
           *        Program running with 64 parallel MPI-processes    *
           *              working on a common directory               *
           ************************************************************
------------------------------------------------------------------------------
                         ORCA SCF GRADIENT CALCULATION
------------------------------------------------------------------------------

Nuc. rep. gradient        (SHARK) ... done (  0.0 sec)
HCore & Overlap gradient  (SHARK) ... done (  0.4 sec)
Split-RIJ-J gradient      (SHARK) ... done (  0.6 sec)
done (  2.3 sec)
XC gradient                       ... done (  2.3 sec)

------------------
CARTESIAN GRADIENT
------------------

   1   C   :   -0.015035189   -0.022209574   -0.023625477
   2   C   :   -0.009094704   -0.000584360    0.033946981
   3   C   :    0.022168634    0.020994661   -0.012703228
   4   H   :    0.001365682    0.020828179    0.010890094
   5   H   :    0.020083349    0.002050355    0.014796478
   6   H   :   -0.016673342    0.006256094   -0.014206320
   7   H   :    0.005237321   -0.019428401   -0.009940130
   8   H   :    0.015779605    0.012497039   -0.007546279
   9   H   :   -0.021342790    0.002967284   -0.007605993
  10   H   :   -0.004244221   -0.001501978    0.021078078
  11   H   :    0.001755655   -0.021869299   -0.005084203

Difference to translation invariance:
           :    0.0000000000    0.0000000000    0.0000000000

Difference to rotation invariance:
           :    0.0000151835   -0.0000131987   -0.0000321261

Norm of the Cartesian gradient     ...    0.0881248270
RMS gradient                       ...    0.0153405633
MAX gradient                       ...    0.0339469809

-------
TIMINGS
-------

Total SCF gradient time     ....        5.619 sec

Densities                   ....       0.048 sec  (  0.9%)
One electron gradient       ....       0.412 sec  (  7.3%)
RI-J Coulomb gradient       ....       0.608 sec  ( 10.8%)
COSX gradient               ....       2.280 sec  ( 40.6%)
XC gradient                 ....       2.264 sec  ( 40.3%)

Maximum memory used throughout the entire SCFGRAD-calculation: 11.3 MB
------------------------------------------------------------------------------
                         ORCA GEOMETRY RELAXATION STEP
------------------------------------------------------------------------------

Reading the OPT-File                    .... done
Getting information on internals        .... done
Copying old internal coords+grads       .... done
Making the new internal coordinates     .... (2022 redundants) done
Validating the new internal coordinates .... (2022 redundants) done
Calculating the B-matrix                .... done
Calculating the G,G- and P matrices     .... done
Transforming gradient to internals      .... done
Projecting the internal gradient        .... done
Number of atoms                         ....  11
Number of internal coordinates          ....  40
Current Energy                          ....  -119.052092323 Eh
Current gradient norm                   ....     0.088124827 Eh/bohr
Maximum allowed component of the step   ....  0.300
Current trust radius                    ....  0.300
Evaluating the initial hessian          ....  (Almloef) done
Projecting the Hessian                  .... done
Forming the augmented Hessian           .... done
Diagonalizing the augmented Hessian     .... done
Last element of RFO vector              ....  0.984225167
Lowest eigenvalues of augmented Hessian:
 -0.011387899  0.010303908  0.010656277  0.099931525  0.112010082
Length of the computed step             ....  0.179756003
The final length of the internal step   ....  0.179756003
Converting the step to Cartesian space:
 Initial RMS(Int)=    0.0284219197
Transforming coordinates:
 Iter   0:  RMS(Cart)=    0.0329648986 RMS(Int)=    0.9914066762
done
Storing new coordinates                 .... done

                                .--------------------.
          ----------------------|Geometry convergence|-------------------------
          Item                value                   Tolerance       Converged
          ---------------------------------------------------------------------
          RMS gradient        0.0103971347            0.0000080000      NO
          MAX gradient        0.0227038840            0.0000300000      NO
          RMS step            0.0284219197            0.0001000000      NO
          MAX step            0.0569103108            0.0002000000      NO
          -------------------------------------------------------------------------
          ........................................................
          Max(Bonds)      0.0301      Max(Angles)    2.43
          Max(Dihed)        1.04      Max(Improp)    0.00
          ---------------------------------------------------------------------

The optimization has not yet converged - more geometry cycles are needed


    ---------------------------------------------------------------------------
                         Redundant Internal Coordinates
                            (Angstroem and degrees)

        Definition                    Value    dE/dq     Step     New-Value
    ----------------------------------------------------------------------------
     1. B(C   1,C   0)                1.5414  0.003008 -0.0043    1.5371   
     2. B(C   2,C   0)                1.5365  0.000420 -0.0006    1.5359   
     3. B(H   3,C   0)                1.0700 -0.021990  0.0292    1.0992   
     4. B(H   4,C   0)                1.0700 -0.022704  0.0301    1.1001   
     5. B(H   5,C   1)                1.0700 -0.022421  0.0297    1.0997   
     6. B(H   6,C   1)                1.0700 -0.022172  0.0294    1.0994   
     7. B(H   7,C   1)                1.0700 -0.021266  0.0282    1.0982   
     8. B(H   8,C   2)                1.0700 -0.022463  0.0298    1.0998   
     9. B(H   9,C   2)                1.0700 -0.021304  0.0283    1.0983   
    10. B(H  10,C   2)                1.0700 -0.022223  0.0295    1.0995   
    11. A(C   2,C   0,H   4)          106.77 -0.004869    1.24    108.01   
    12. A(C   1,C   0,C   2)          114.09  0.009345   -1.03    113.06   
    13. A(H   3,C   0,H   4)          112.71  0.007436   -2.43    110.29   
    14. A(C   2,C   0,H   3)          108.31 -0.003453    0.48    108.78   
    15. A(C   1,C   0,H   3)          108.31 -0.003249    0.42    108.73   
    16. A(C   1,C   0,H   4)          106.77 -0.004647    1.19    107.95   
    17. A(C   0,C   1,H   5)          109.47 -0.004363    0.77    110.24   
    18. A(H   6,C   1,H   7)          109.47  0.003234   -0.57    108.90   
    19. A(H   5,C   1,H   7)          109.47  0.003595   -0.64    108.83   
    20. A(C   0,C   1,H   7)          109.47 -0.002929    0.52    110.00   
    21. A(H   5,C   1,H   6)          109.47  0.003917   -0.70    108.77   
    22. A(C   0,C   1,H   6)          109.47 -0.003454    0.61    110.08   
    23. A(H   8,C   2,H   9)          109.47  0.003721   -0.64    108.83   
    24. A(C   0,C   2,H   9)          109.47 -0.002939    0.53    110.00   
    25. A(C   0,C   2,H   8)          109.47 -0.004651    0.82    110.29   
    26. A(H   9,C   2,H  10)          109.47  0.003595   -0.64    108.83   
    27. A(H   8,C   2,H  10)          109.47  0.003898   -0.70    108.77   
    28. A(C   0,C   2,H  10)          109.47 -0.003625    0.63    110.11   
    29. D(H   6,C   1,C   0,H   3)    178.37 -0.001784    1.03    179.40   
    30. D(H   6,C   1,C   0,C   2)     57.69 -0.001133    0.79     58.48   
    31. D(H   5,C   1,C   0,C   2)    -62.31 -0.001144    0.80    -61.51   
    32. D(H   6,C   1,C   0,H   4)    -60.00  0.002599   -0.95    -60.95   
    33. D(H   5,C   1,C   0,H   4)    180.00  0.002588   -0.94    179.06   
    34. D(H   5,C   1,C   0,H   3)     58.37 -0.001795    1.04     59.41   
    35. D(H   8,C   2,C   0,C   1)     62.31  0.001173   -0.79     61.52   
    36. D(H   9,C   2,C   0,H   4)    -60.00 -0.002522    0.95    -59.05   
    37. D(H   9,C   2,C   0,H   3)     61.63  0.001620   -0.96     60.67   
    38. D(H   9,C   2,C   0,C   1)   -177.69  0.001083   -0.75   -178.44   
    39. D(H   8,C   2,C   0,H   4)    180.00 -0.002432    0.91    180.91   
    40. D(H   8,C   2,C   0,H   3)    -58.37  0.001710   -1.00    -59.37   
    ----------------------------------------------------------------------------

Geometry step timings:
Preparation and reading OPT file:      0.000 s ( 2.622 %)
Internal coordinates            :      0.000 s ( 2.357 %)
B/P matrices and projection     :      0.001 s (24.779 %)
Hessian update/contruction      :      0.000 s (14.349 %)
Making the step                 :      0.001 s (22.068 %)
Converting the step to Cartesian:      0.000 s ( 5.598 %)
Storing new data                :      0.000 s ( 3.005 %)
Checking convergence            :      0.000 s ( 3.889 %)
Final printing                  :      0.001 s (20.949 %)
Total time                      :      0.003 s

Time for energy+gradient        :     72.277 s
Time for complete geometry iter :     73.438 s

         *************************************************************
         *                GEOMETRY OPTIMIZATION CYCLE   2            *
         *************************************************************
---------------------------------
CARTESIAN COORDINATES (ANGSTROEM)
---------------------------------
  C     -0.601853   18.667792   40.152685
  C     -0.839629   18.671009   41.671321
  C      0.521618   19.620484   39.717612
  H     -0.341968   17.647116   39.838279
  H     -1.531945   18.992569   39.663089
  H      0.065004   18.334897   42.198670
  H     -1.091176   19.685635   42.011854
  H     -1.668242   17.995667   41.923068
  H      1.475508   19.319049   40.174541
  H      0.629791   19.599412   38.624897
  H      0.288273   20.648119   40.031251

----------------------------
CARTESIAN COORDINATES (A.U.)
----------------------------
  NO LB      ZA    FRAG     MASS         X           Y           Z
   0 C     6.0000    0    12.011   -1.137338   35.277015   75.877579
   1 C     6.0000    0    12.011   -1.586669   35.283095   78.747385
   2 C     6.0000    0    12.011    0.985715   37.077341   75.055410
   3 H     1.0000    0     1.008   -0.646227   33.348217   75.283437
   4 H     1.0000    0     1.008   -2.894956   35.890753   74.952377
   5 H     1.0000    0     1.008    0.122840   34.647935   79.743930
   6 H     1.0000    0     1.008   -2.062023   37.200458   79.390899
   7 H     1.0000    0     1.008   -3.152521   34.006883   79.223118
   8 H     1.0000    0     1.008    2.788305   36.507713   75.918881
   9 H     1.0000    0     1.008    1.190132   37.037521   72.990476
  10 H     1.0000    0     1.008    0.544757   39.019290   75.648102

--------------------------------
INTERNAL COORDINATES (ANGSTROEM)
--------------------------------
 C      0   0   0     0.000000000000     0.00000000     0.00000000
 C      1   0   0     1.537140907176     0.00000000     0.00000000
 C      1   2   0     1.535935458303   113.06039813     0.00000000
 H      1   2   3     1.099168149900   108.73031797   120.92336525
 H      1   2   3     1.100115691668   107.95588946   240.57680428
 H      2   1   3     1.099740709024   110.23460835   298.48688655
 H      2   1   3     1.099410122310   110.08030249    58.47671156
 H      2   1   3     1.098208991895   109.99274233   178.47440688
 H      3   1   2     1.099796493236   110.28721974    61.51936131
 H      3   1   2     1.098259322500   109.99733242   181.56051216
 H      3   1   2     1.099478363424   110.10214481   301.48277097

---------------------------
INTERNAL COORDINATES (A.U.)
---------------------------
 C      0   0   0     0.000000000000     0.00000000     0.00000000
 C      1   0   0     2.904775343809     0.00000000     0.00000000
 C      1   2   0     2.902497375572   113.06039813     0.00000000
 H      1   2   3     2.077126778440   108.73031797   120.92336525
 H      1   2   3     2.078917372882   107.95588946   240.57680428
 H      2   1   3     2.078208758380   110.23460835   298.48688655
 H      2   1   3     2.077584040027   110.08030249    58.47671156
 H      2   1   3     2.075314232491   109.99274233   178.47440688
 H      3   1   2     2.078314175263   110.28721974    61.51936131
 H      3   1   2     2.075409343551   109.99733242   181.56051216
 H      3   1   2     2.077712997043   110.10214481   301.48277097



           ************************************************************
           *        Program running with 64 parallel MPI-processes    *
           *              working on a common directory               *
           ************************************************************
------------------------------------------------------------------------------
                   ___                                                        
                  /   \      - P O W E R E D   B Y -                         
                 /     \                                                     
                 |  |  |   _    _      __       _____    __    __             
                 |  |  |  | |  | |    /  \     |  _  \  |  |  /  |          
                  \  \/   | |  | |   /    \    | | | |  |  | /  /          
                 / \  \   | |__| |  /  /\  \   | |_| |  |  |/  /          
                |  |  |   |  __  | /  /__\  \  |    /   |      \           
                |  |  |   | |  | | |   __   |  |    \   |  |\   \          
                \     /   | |  | | |  |  |  |  | |\  \  |  | \   \       
                 \___/    |_|  |_| |__|  |__|  |_| \__\ |__|  \__/        
                                                                              
                      - O R C A' S   B I G   F R I E N D -                    
                                      &                                       
                       - I N T E G R A L  F E E D E R -                       
                                                                              
 v1 FN, 2020, v2 2021, v3 2022-2024                                           
------------------------------------------------------------------------------


----------------------
SHARK INTEGRAL PACKAGE
----------------------

Number of atoms                             ...     11
Number of basis functions                   ...    100
Number of shells                            ...     60
Maximum angular momentum                    ...      2
Integral batch strategy                     ... SHARK/LIBINT Hybrid
RI-J (if used) integral strategy            ... SPLIT-RIJ (Revised 2003 algorithm where possible)
Printlevel                                  ...      1
Contraction scheme used                     ... PARTIAL GENERAL contraction
Prescreening option                         ... SCHWARTZ
   Thresh                                   ... 1.000e-12
   Tcut                                     ... 1.000e-14
   Tpresel                                  ... 1.000e-14 
Coulomb Range Separation                    ... NOT USED
Exchange Range Separation                   ... Long Range
   Mu parameter                             ... 3.300e-01
   Scaling (regular/separated)              ... 1.900e-01 4.600e-01
Robust (split-)RI terms used:
  metric    (central integrals)             ... YES
  density   (r.h.s.  integrals)             ... YES
  potential (l.h.s.  integrals)             ... YES
Multipole approximations                    ... NOT USED
Finite Nucleus Model                        ... NOT USED
CABS basis                                  ... NOT available
Auxiliary Coulomb fitting basis             ... AVAILABLE
   # of basis functions in Aux-J            ...    235
   # of shells in Aux-J                     ...     85
   Maximum angular momentum in Aux-J        ...      4
Auxiliary J/K fitting basis                 ... NOT available
Auxiliary Correlation fitting basis         ... NOT available
Auxiliary 'external' fitting basis          ... NOT available

Checking pre-screening integrals            ... done (  0.1 sec) Dimension = 60
Save PGC pre-screening integrals            ... done (  0.3 sec) Dimension = 60
Calculate PGC overlap integrals             ... done (  0.4 sec) Dimension = 42
Calculating pre-screening integrals (ORCA)  ... done (  0.5 sec) Dimension = 42
Shell pair information
Shell pair cut-off parameter TPreSel        ...   1.0e-14
Total number of shell pairs                 ...      1830
Shell pairs after pre-screening             ...      1707
Total number of primitive shell pairs       ...      3436
Primitive shell pairs kept                  ...      2957
          la=0 lb=0:    827 shell pairs
          la=1 lb=0:    598 shell pairs
          la=1 lb=1:    105 shell pairs
          la=2 lb=0:    129 shell pairs
          la=2 lb=1:     42 shell pairs
          la=2 lb=2:      6 shell pairs

Checking whether 4 symmetric matrices of dimension 100 fit in memory
:Max Core in MB      =   4096.00
 MB in use           =      5.24
 MB left             =   4090.76
 MB needed           =      0.15
 Data fit in memory  = YES
Calculating RI/J V-Matrix + Cholesky decomp.... done (  0.1 sec)
Calculating Nuclear repulsion               ... done (  0.0 sec) ENN=     82.182570452981 Eh

Diagonalization of the overlap matrix:
Smallest eigenvalue                        ... 5.747e-03
Time for diagonalization                   ...    0.002 sec
Threshold for overlap eigenvalues          ... 1.000e-07
Number of eigenvalues below threshold      ... 0
Time for construction of square roots      ...    0.001 sec
Total time needed                          ...    0.064 sec

-------------------
DFT GRID GENERATION
-------------------

General Integration Accuracy     IntAcc      ... 4.388
Radial Grid Type                 RadialGrid  ... OptM3 with GC (2021)
Angular Grid (max. ang.)         AngularGrid ... 4 (Lebedev-302)
Angular grid pruning method      GridPruning ... 4 (adaptive)
Weight generation scheme         WeightScheme... mBecke (2022)
Basis function cutoff            BFCut       ... 1.0000e-12
Integration weight cutoff        WCut        ... 1.0000e-14
Partially contracted basis set               ... off
Rotationally invariant grid construction     ... off
Angular grids for H and He will be reduced by one unit

Total number of grid points                  ...    44063
Total number of batches                      ...      695
Average number of points per batch           ...       63
Average number of grid points per atom       ...     4006

---------------------
SHARK GRID GENERATION
---------------------

General Integration Accuracy     IntAcc      ... 4.388
Radial Grid Type                 RadialGrid  ... OptM3 with GC (2021)
Angular Grid (max. ang.)         AngularGrid ... 4 (Lebedev-302)
Angular grid pruning method      GridPruning ... 4 (adaptive)
Weight generation scheme         WeightScheme... mBecke (2022)
Basis function cutoff            BFCut       ... 1.0000e-12
Integration weight cutoff        WCut        ... 1.0000e-14
Partially contracted basis set               ... off
Rotationally invariant grid construction     ... off
Angular grids for H and He will be reduced by one unit
Steep s-basis detected: some atoms will have their radial
                        grid points doubled.

Total number of grid points                  ...    62435
Total number of batches                      ...      983
Average number of points per batch           ...       63
Average number of grid points per atom       ...     5676

--------------------
COSX GRID GENERATION
--------------------

GRIDX 1
-------
General Integration Accuracy     IntAcc      ... 3.816
Radial Grid Type                 RadialGrid  ... OptM3 with GC (2021)
Angular Grid (max. ang.)         AngularGrid ... 1 (Lebedev-50)
Angular grid pruning method      GridPruning ... 4 (adaptive)
Weight generation scheme         WeightScheme... mBecke (2022)
Basis function cutoff            BFCut       ... 1.0000e-12
Integration weight cutoff        WCut        ... 1.0000e-14
Partially contracted basis set               ... on
Rotationally invariant grid construction     ... off
Angular grids for H and He will be reduced by one unit

Total number of grid points                  ...     5702
Total number of batches                      ...       52
Average number of points per batch           ...      109
Average number of grid points per atom       ...      518
UseSFitting                                  ... on

GRIDX 2
-------
General Integration Accuracy     IntAcc      ... 4.020
Radial Grid Type                 RadialGrid  ... OptM3 with GC (2021)
Angular Grid (max. ang.)         AngularGrid ... 2 (Lebedev-110)
Angular grid pruning method      GridPruning ... 4 (adaptive)
Weight generation scheme         WeightScheme... mBecke (2022)
Basis function cutoff            BFCut       ... 1.0000e-12
Integration weight cutoff        WCut        ... 1.0000e-14
Partially contracted basis set               ... on
Rotationally invariant grid construction     ... off
Angular grids for H and He will be reduced by one unit

Total number of grid points                  ...    11674
Total number of batches                      ...       97
Average number of points per batch           ...      120
Average number of grid points per atom       ...     1061
UseSFitting                                  ... on

GRIDX 3
-------
General Integration Accuracy     IntAcc      ... 4.338
Radial Grid Type                 RadialGrid  ... OptM3 with GC (2021)
Angular Grid (max. ang.)         AngularGrid ... 3 (Lebedev-194)
Angular grid pruning method      GridPruning ... 4 (adaptive)
Weight generation scheme         WeightScheme... mBecke (2022)
Basis function cutoff            BFCut       ... 1.0000e-12
Integration weight cutoff        WCut        ... 1.0000e-14
Partially contracted basis set               ... on
Rotationally invariant grid construction     ... off
Angular grids for H and He will be reduced by one unit

Total number of grid points                  ...    25562
Total number of batches                      ...      206
Average number of points per batch           ...      124
Average number of grid points per atom       ...     2324
UseSFitting                                  ... on
Grids setup in   6.0 sec
Initializing property integral containers    ... done (  0.1 sec)

SHARK setup successfully completed in   7.4 seconds

Maximum memory used throughout the entire STARTUP-calculation: 16.8 MB


           ************************************************************
[...]
     16       0.097634   0.069312   0.208598   0.282459  -0.417977   0.194912
     17      -0.280706   0.333248  -0.197060   0.109857  -0.168340  -0.211437
     18       0.162011  -0.002421  -0.246114   0.269523  -0.392747  -0.253252
     19       0.165563  -0.167182  -0.150370   0.013761  -0.007031  -0.155737
     20      -0.289281   0.363486   0.193189   0.143242  -0.222255   0.201635
     21      -0.088905   0.074151  -0.327226  -0.026933   0.041628  -0.325657
     22      -0.121357   0.116273   0.367903  -0.047624   0.066207   0.369161
     23      -0.309909   0.384187  -0.051494  -0.168368   0.239345  -0.045200
     24       0.170801   0.150330   0.151369  -0.011318  -0.011655  -0.153615
     25       0.176215   0.319328   0.046789   0.242179   0.394566  -0.055176
     26      -0.280385  -0.185503  -0.314978   0.163706   0.233658   0.314872
     27       0.246069   0.299583   0.327542  -0.129607  -0.183853  -0.322465
     28       0.227860   0.269803  -0.374112  -0.107446  -0.174002   0.365690
     29       0.091106   0.063506   0.047362  -0.021245  -0.032133  -0.046654
     30       0.230725   0.356528  -0.105229   0.219043   0.354328   0.118745
     31       0.107447   0.083927  -0.098870  -0.013070  -0.026132   0.100040
     32      -0.271120  -0.153179   0.323856   0.187717   0.295013  -0.319279
                 24         25         26         27         28         29    
      0       0.040430   0.001401   0.028076  -0.023310  -0.056449  -0.000056
      1       0.042084   0.000913   0.029180  -0.024195   0.063960   0.000129
      2       0.048461  -0.001824   0.033741  -0.028023  -0.008259   0.000023
      3       0.021957  -0.001011  -0.005546   0.002764   0.016322   0.043518
      4       0.018275   0.003809  -0.002067   0.006219  -0.018403  -0.048499
      5      -0.006682   0.035738   0.022048   0.029580   0.002406   0.006324
      6      -0.003043  -0.027511   0.016068   0.022353   0.016231  -0.043373
      7       0.001122  -0.023586   0.012934   0.019817  -0.018496   0.049180
      8       0.029334   0.004415  -0.009169   0.001007   0.002400  -0.006369
      9      -0.364749  -0.001554   0.123265  -0.097665   0.129441  -0.001158
     10       0.036781  -0.001346  -0.502625   0.406243  -0.603221  -0.002417
     11      -0.235311   0.002227  -0.158370   0.129352  -0.203000   0.001661
     12       0.017570  -0.002723  -0.457098   0.369962   0.550458   0.001878
     13      -0.397243  -0.000770   0.155629  -0.123808  -0.167088   0.000913
     14      -0.180209   0.001713  -0.243001   0.197702   0.302473  -0.001895
     15      -0.050880  -0.356886  -0.208600  -0.297539  -0.160093  -0.414151
     16      -0.329238   0.126086   0.071776   0.107189   0.052698   0.137738
     17      -0.101802  -0.198887  -0.116143  -0.169246  -0.092289  -0.239671
     18      -0.319400   0.102873   0.058073   0.087920  -0.042420  -0.110891
     19      -0.029098  -0.394567  -0.229710  -0.328319   0.175765   0.453794
     20      -0.139273  -0.132209  -0.077171  -0.112789   0.062420   0.161794
     21       0.047954   0.262611   0.214856   0.173672   0.004392   0.006323
     22       0.074809   0.221601   0.181290   0.146032  -0.005084  -0.013552
     23       0.230100  -0.082594  -0.067696  -0.058767   0.000648   0.002502
     24       0.025344   0.373041  -0.210898  -0.304073  -0.164482   0.430353
     25      -0.277729  -0.122200   0.068124   0.098124   0.049079  -0.128558
     26      -0.213961   0.188196  -0.108035  -0.149964  -0.084224   0.218689
     27       0.180354   0.039582  -0.031765  -0.028521   0.004576  -0.009743
     28       0.163171  -0.010414   0.008263   0.003939  -0.005068   0.010902
     29       0.044404  -0.355396   0.284448   0.228140  -0.000314  -0.000446
     30      -0.243313  -0.093775   0.052241   0.074710  -0.037139   0.096328
     31       0.025965   0.406384  -0.229935  -0.331323   0.180465  -0.468473
     32      -0.251308   0.120235  -0.069544  -0.094979   0.055425  -0.142378
                 30         31         32    
      0       0.024389   0.000346   0.005437
      1      -0.027502   0.000147   0.006144
      2       0.003631  -0.000038   0.006783
      3       0.040360   0.049820   0.046685
      4      -0.044913   0.044671   0.042810
      5       0.005870   0.003645   0.002932
      6       0.039695  -0.006665   0.006495
      7      -0.044800  -0.014446   0.014549
      8       0.006619  -0.062254   0.064237
      9      -0.055134   0.000753   0.019795
     10       0.249648  -0.000893  -0.088258
     11       0.082969  -0.001052  -0.029084
     12      -0.229378  -0.002019  -0.076114
     13       0.071343   0.001104   0.024007
     14      -0.125225  -0.002014  -0.041365
     15      -0.383422  -0.205372  -0.192083
     16       0.128870   0.083834   0.079637
     17      -0.226152  -0.121102  -0.115487
     18      -0.104293   0.071357   0.070860
     19       0.420258  -0.230129  -0.226178
     20       0.153506  -0.081242  -0.081800
     21       0.003804  -0.461034  -0.435886
     22      -0.010569  -0.386975  -0.365630
     23       0.002130   0.160468   0.152302
     24      -0.398920   0.208856  -0.219852
     25       0.116655  -0.069809   0.072141
     26      -0.199188   0.093625  -0.096669
     27       0.008086  -0.077009   0.079843
     28      -0.007958   0.007560  -0.007384
     29      -0.007803   0.592302  -0.610089
     30      -0.085259  -0.053876   0.054974
     31       0.428437   0.233403  -0.245011
     32       0.127683   0.057834  -0.058994


-----------
IR SPECTRUM
-----------

 Mode   freq       eps      Int      T**2         TX        TY        TZ
       cm**-1   L/(mol*cm) km/mol    a.u.
----------------------------------------------------------------------------
  6:    228.66   0.000000    0.00  0.000000  ( 0.000190 -0.000038  0.000227)
  7:    278.84   0.000000    0.00  0.000000  ( 0.000055 -0.000311 -0.000003)
  8:    367.91   0.000028    0.14  0.000024  ( 0.002672  0.002709  0.003106)
  9:    756.77   0.000736    3.72  0.000303  (-0.011437  0.013047 -0.001565)
 10:    897.21   0.000192    0.97  0.000067  ( 0.004360  0.004523  0.005235)
 11:    909.25   0.000000    0.00  0.000000  ( 0.000248 -0.000090  0.000165)
 12:    932.03   0.000369    1.86  0.000123  ( 0.005798  0.004009 -0.008586)
 13:   1088.66   0.000067    0.34  0.000019  ( 0.002372  0.001637 -0.003318)
 14:   1178.92   0.000261    1.32  0.000069  ( 0.004464  0.004566  0.005315)
 15:   1209.02   0.000077    0.39  0.000020  (-0.002897  0.003356 -0.000391)
 16:   1313.50   0.000000    0.00  0.000000  ( 0.000065 -0.000118 -0.000052)
 17:   1363.59   0.000484    2.45  0.000111  (-0.005556 -0.003897  0.008042)
 18:   1407.21   0.001298    6.56  0.000288  ( 0.008971  0.006248 -0.012977)
 19:   1413.04   0.000366    1.85  0.000081  ( 0.004763  0.004940  0.005807)
 20:   1466.15   0.000000    0.00  0.000000  ( 0.000277 -0.000082  0.000088)
 21:   1469.67   0.000028    0.14  0.000006  ( 0.001288  0.001505  0.001450)
 22:   1477.07   0.000252    1.27  0.000053  (-0.003686 -0.002861  0.005613)
 23:   1484.23   0.002480   12.53  0.000521  (-0.015194  0.016894 -0.002265)
 24:   1492.69   0.000841    4.25  0.000176  (-0.007032 -0.007306 -0.008538)
 25:   3045.58   0.006058   30.62  0.000621  (-0.013305 -0.009241  0.018929)
 26:   3046.45   0.009439   47.70  0.000967  ( 0.016550  0.017142  0.019980)
 27:   3049.91   0.000001    0.00  0.000000  (-0.000173 -0.000173  0.000009)
 28:   3077.00   0.001265    6.39  0.000128  (-0.007472  0.008447 -0.001065)
 29:   3114.93   0.000000    0.00  0.000000  ( 0.000015  0.000185 -0.000022)
 30:   3124.28   0.016981   85.81  0.001696  ( 0.027278 -0.030562  0.004239)
 31:   3126.64   0.004994   25.24  0.000498  ( 0.012264  0.008567 -0.016572)
 32:   3128.88   0.008511   43.01  0.000849  ( 0.014989  0.016239  0.018987)

* The epsilon (eps) is given for a Dirac delta lineshape.
** The dipole moment derivative (T) already includes vibrational overlap.

The first frequency considered to be a vibration is 6
The total number of vibrations considered is 27


--------------------------
THERMOCHEMISTRY AT 298.15K
--------------------------

Temperature         ...   298.15 K
Pressure            ...     1.00 atm
Total Mass          ...    44.10 AMU
Quasi RRHO          ...     True
Cut-Off Frequency   ...     1.00 cm^-1

Throughout the following assumptions are being made:
  (1) The electronic state is orbitally nondegenerate
  (2) There are no thermally accessible electronically excited states
  (3) Hindered rotations indicated by low frequency modes are not
      treated as such but are treated as vibrations and this may
      cause some error
  (4) All equations used are the standard statistical mechanics
      equations for an ideal gas
  (5) All vibrations are strictly harmonic

freq.     228.66  E(vib)   ...       0.32 
freq.     278.84  E(vib)   ...       0.28 
freq.     367.91  E(vib)   ...       0.21 
freq.     756.77  E(vib)   ...       0.06 
freq.     897.21  E(vib)   ...       0.03 
freq.     909.25  E(vib)   ...       0.03 
freq.     932.03  E(vib)   ...       0.03 
freq.    1088.66  E(vib)   ...       0.02 
freq.    1178.92  E(vib)   ...       0.01 
freq.    1209.02  E(vib)   ...       0.01 
freq.    1313.50  E(vib)   ...       0.01 
freq.    1363.59  E(vib)   ...       0.01 
freq.    1407.21  E(vib)   ...       0.00 
freq.    1413.04  E(vib)   ...       0.00 
freq.    1466.15  E(vib)   ...       0.00 
freq.    1469.67  E(vib)   ...       0.00 
freq.    1477.07  E(vib)   ...       0.00 
freq.    1484.23  E(vib)   ...       0.00 
freq.    1492.69  E(vib)   ...       0.00 
freq.    3045.58  E(vib)   ...       0.00 
freq.    3046.45  E(vib)   ...       0.00 
freq.    3049.91  E(vib)   ...       0.00 
freq.    3077.00  E(vib)   ...       0.00 
freq.    3114.93  E(vib)   ...       0.00 
freq.    3124.28  E(vib)   ...       0.00 
freq.    3126.64  E(vib)   ...       0.00 
freq.    3128.88  E(vib)   ...       0.00 

------------
INNER ENERGY
------------

The inner energy is: U= E(el) + E(ZPE) + E(vib) + E(rot) + E(trans)
    E(el)   - is the total energy from the electronic structure calculation
              = E(kin-el) + E(nuc-el) + E(el-el) + E(nuc-nuc)
    E(ZPE)  - the the zero temperature vibrational energy from the frequency calculation
    E(vib)  - the the finite temperature correction to E(ZPE) due to population
              of excited vibrational states
    E(rot)  - is the rotational thermal energy
    E(trans)- is the translational thermal energy

Summary of contributions to the inner energy U:
Electronic energy                ...   -119.05941691 Eh
Zero point energy                ...      0.10353837 Eh      64.97 kcal/mol
Thermal vibrational correction   ...      0.00167377 Eh       1.05 kcal/mol
Thermal rotational correction    ...      0.00141627 Eh       0.89 kcal/mol
Thermal translational correction ...      0.00141627 Eh       0.89 kcal/mol
-----------------------------------------------------------------------
Total thermal energy                   -118.95137222 Eh


Summary of corrections to the electronic energy:
(perhaps to be used in another calculation)
Total thermal correction                  0.00450631 Eh       2.83 kcal/mol
Non-thermal (ZPE) correction              0.10353837 Eh      64.97 kcal/mol
-----------------------------------------------------------------------
Total correction                          0.10804468 Eh      67.80 kcal/mol


--------
ENTHALPY
--------

The enthalpy is H = U + kB*T
                kB is Boltzmann's constant
Total thermal energy              ...   -118.95137222 Eh 
Thermal Enthalpy correction       ...      0.00094421 Eh       0.59 kcal/mol
-----------------------------------------------------------------------
Total Enthalpy                    ...   -118.95042802 Eh


Note: Only C1 symmetry has been detected, increase convergence thresholds 
      if your molecule has a higher symmetry. Symmetry factor of 1.0 is   
      used for the rotational entropy correction. 
 

Note: Rotational entropy computed according to Herzberg 
Infrared and Raman Spectra, Chapter V,1, Van Nostrand Reinhold, 1945 
Point Group:  C1, Symmetry Number:   1  
Rotational constants in cm-1:     0.979083     0.280979     0.248912 

Vibrational entropy computed according to the QRRHO of S. Grimme
Chem.Eur.J. 2012 18 9955 using a reference frequency of 100.0 cm-1


-------
ENTROPY
-------

The entropy contributions are T*S = T*(S(el)+S(vib)+S(rot)+S(trans))
     S(el)   - electronic entropy
     S(vib)  - vibrational entropy
     S(rot)  - rotational entropy
     S(trans)- translational entropy
The entropies will be listed as multiplied by the temperature to get
units of energy

Electronic entropy                ...      0.00000000 Eh      0.00 kcal/mol
Vibrational entropy               ...      0.00260000 Eh      1.63 kcal/mol
Rotational entropy                ...      0.01077661 Eh      6.76 kcal/mol
Translational entropy             ...      0.01771163 Eh     11.11 kcal/mol
-----------------------------------------------------------------------
Final entropy term                ...      0.03108824 Eh     19.51 kcal/mol

In case the symmetry of your molecule has not been determined correctly
or in case you have a reason to use a different symmetry number we print 
out the resulting rotational entropy values for sn=1,12:

 non-linear molecules -----------------------------------
|  sn= 1 | S(rot)=       0.01077661 Eh      6.76 kcal/mol|
|  sn= 2 | S(rot)=       0.01012216 Eh      6.35 kcal/mol|
|  sn= 3 | S(rot)=       0.00973932 Eh      6.11 kcal/mol|
|  sn= 4 | S(rot)=       0.00946770 Eh      5.94 kcal/mol|
|  sn= 5 | S(rot)=       0.00925701 Eh      5.81 kcal/mol|
|  sn= 6 | S(rot)=       0.00908487 Eh      5.70 kcal/mol|
|  sn= 7 | S(rot)=       0.00893932 Eh      5.61 kcal/mol|
|  sn= 8 | S(rot)=       0.00881324 Eh      5.53 kcal/mol|
|  sn= 9 | S(rot)=       0.00870203 Eh      5.46 kcal/mol|
|  sn=10 | S(rot)=       0.00860256 Eh      5.40 kcal/mol|
|  sn=11 | S(rot)=       0.00851257 Eh      5.34 kcal/mol|
|  sn=12 | S(rot)=       0.00843041 Eh      5.29 kcal/mol|
 linear molecules ---------------------------------------
|  Dinfh | S(rot)=       0.00663884 Eh      4.17 kcal/mol|
|  Cinfv | S(rot)=       0.00729329 Eh      4.58 kcal/mol|
 --------------------------------------------------------


-------------------
GIBBS FREE ENERGY
-------------------

The Gibbs free energy is G = H - T*S

Total enthalpy                    ...   -118.95042802 Eh 
Total entropy correction          ...     -0.03108824 Eh    -19.51 kcal/mol
-----------------------------------------------------------------------
Final Gibbs free energy         ...   -118.98151626 Eh

For completeness - the Gibbs free energy minus the electronic energy
G-E(el)                           ...      0.07790065 Eh     48.88 kcal/mol



--------------------------------
SUGGESTED CITATIONS FOR THIS RUN
--------------------------------

Below you find a list of papers that are relevant to this ORCA run
We neither can nor want to force you to cite these papers, but we appreciate if you do
You receive ORCA, which is the product of decades of hard work by many enthusiastic individuals, for free
The only thing we kindly ask in return is that you cite our papers,
We deeply appreciate it, if you show your appreciation for ORCA by not just citing the generic ORCA reference.

Please note that relegating all ORCA citations to the supporting information does *not* help us.
SI sections are not indexed - citations you put there will not count into any citation statistics
But we need these citations in order to attract the funding resources that allow us to do what we are doing

Therefore, if you are a happy ORCA user, please consider citing a few of the papers listed below in the main body of your paper

In addition to the list printed below, the program has created the file iPP_1mer.bibtex that contains the list in bibtex format
You can import this file easily into all common literature databanks and citation aid programs


List of essential papers. We consider these as the minimum necessary citations

  1. Neese, F.
     Software update: the ORCA program system, version 6.0
     WIRES Comput. Molec. Sci. 2025 15(1), e70019
     doi.org/10.1002/wcms.7019

List of papers to cite with high priority. The work reported in these papers was absolutely
necessary for this run to complete.
Our perspective: the developers of density functionals and basis sets usually get cited in chemistry papers
Good! But without the algorithms to do something with them, the functionals or basis sets would not do anything.
Hence, in our opinion, the algorithm design and method developments papers are equally worthy of getting cited

  1. Neese, F.
     An improvement of the resolution of the identity approximation for the formation of the Coulomb matrix
     J. Comp. Chem. 2003 24(14), 1740-1747
     doi.org/10.1002/jcc.10318
  2. Neese, F.; Wennmohs, F.; Hansen, A.; Becker, U.
     Efficient, approximate and parallel Hartree-Fock and hybrid DFT calculations. A 'chain-of-spheres' algorithm for the Hartree-Fock exchange
     Chem. Phys. 2009 356(1-3), 98-109
     doi.org/10.1016/j.chemphys.2008.10.036
  3. Helmich-Paris, B.; de Souza, B.; Neese, F.; Izsák, R.
     An improved chain of spheres for exchange algorithm
     J. Chem. Phys. 2021 155(10), 104109
     doi.org/10.1063/5.0058766
  4. Neese, F.
     The SHARK Integral Generation and Digestion System
     J. Comp. Chem. 2022 44(3), 381
     doi.org/10.1002/jcc.26942

List of suggested additional citations. These are papers that are important in the 'surrounding' of 
of this run, or papers that preceded the highly important papers. If you like your results we are grateful for a citation.

  1. Izsak, R.; Neese, F.
     An overlap fitted chain of spheres exchange method
     J. Chem. Phys. 2011 135 , 144105
     doi.org/10.1063/1.3646921
  2. Izsak, R.; Hansen, A.; Neese, F.
     The resolution of identity and chain of spheres approximations for the LPNO-CCSD singles Fock term
     Molec. Phys. 2012 110 , 2413-2417
     doi.org/10.1080/00268976.2012.687466
  3. Neese, F.
     The ORCA program system
     WIRES Comput. Molec. Sci. 2012 2(1), 73-78
     doi.org/10.1002/wcms.81
  4. Izsak, R.; Neese, F.; Klopper, W.
     Robust fitting techniques in the chain of spheres approximation to the Fock exchange: The role of the complementary space
     J. Chem. Phys. 2013 139 , 
     doi.org/10.1063/1.4819264
  5. Neese, F.
     Software update: the ORCA program system, version 4.0
     WIRES Comput. Molec. Sci. 2018 8(1), 1-6
     doi.org/10.1002/wcms.1327
  6. Neese, F.; Wennmohs, F.; Becker, U.; Riplinger, C.
     The ORCA quantum chemistry program package
     J. Chem. Phys. 2020 152(22), 224108
     doi.org/10.1063/5.0004608
  7. Neese, F.
     Software update: The ORCA program system—Version 5.0
     WIRES Comput. Molec. Sci. 2022 12(1), e1606
     doi.org/10.1002/wcms.1606

List of optional additional citations

  1. Neese, F.
     Approximate second-order SCF convergence for spin unrestricted wavefunctions
     Chem. Phys. Lett. 2000 325(1-3), 93-98
     doi.org/10.1016/s0009-2614(00)00662-x

Timings for individual modules:

Sum of individual times          ...      614.021 sec (=  10.234 min)
Startup calculation              ...       88.342 sec (=   1.472 min)  14.4 %
SCF iterations                   ...      387.504 sec (=   6.458 min)  63.1 %
Property calculations            ...        1.577 sec (=   0.026 min)   0.3 %
SCF Gradient evaluation          ...       55.845 sec (=   0.931 min)   9.1 %
Geometry relaxation              ...        0.033 sec (=   0.001 min)   0.0 %
Numerical frequency calculation  ...       80.721 sec (=   1.345 min)  13.1 %
                             ****ORCA TERMINATED NORMALLY****
TOTAL RUN TIME: 0 days 0 hours 9 minutes 56 seconds 714 msec
