nohup: ignoring input

                                 *****************
                                 * O   R   C   A *
                                 *****************

                                            #,                                       
                                            ###                                      
                                            ####                                     
                                            #####                                    
                                            ######                                   
                                           ########,                                 
                                     ,,################,,,,,                         
                               ,,#################################,,                 
                          ,,##########################################,,             
                       ,#########################################, ''#####,          
                    ,#############################################,,   '####,        
                  ,##################################################,,,,####,       
                ,###########''''           ''''###############################       
              ,#####''   ,,,,##########,,,,          '''####'''          '####       
            ,##' ,,,,###########################,,,                        '##       
           ' ,,###''''                  '''############,,,                           
         ,,##''                                '''############,,,,        ,,,,,,###''
      ,#''                                            '''#######################'''  
     '                                                          ''''####''''         
             ,#######,   #######,   ,#######,      ##                                
            ,#'     '#,  ##    ##  ,#'     '#,    #''#        ,####,    ,#,          
            ##       ##  ##   ,#'  ##            #'  '#       #'       ,# #          
            ##       ##  #######   ##           ,######,      #####,      #          
            '#,     ,#'  ##    ##  '#,     ,#' ,#      #,     #,   #      #          
             '#######'   ##     ##  '#######'  #'      '#     '####' #    #          



                #########################################################
                #                        -***-                          #
                #          Department of theory and spectroscopy        #
                #                                                       #
                #                      Frank Neese                      #
                #                                                       #
                #     Directorship, Architecture, Infrastructure        #
                #                    SHARK, DRIVERS                     #
                #        Core code/Algorithms in most modules           #
                #                                                       #
                #        Max Planck Institute fuer Kohlenforschung      #
                #                Kaiser Wilhelm Platz 1                 #
                #                 D-45470 Muelheim/Ruhr                 #
                #                      Germany                          #
                #                                                       #
                #                  All rights reserved                  #
                #                        -***-                          #
                #########################################################


                         Program Version 6.1.0  -  RELEASE   -
                                (GIT: $679e74b$)
                          ($2025-06-10 18:02:51 +0200$)


 With contributions from (in alphabetic order):
[Max-Planck-Institut fuer Kohlenforschung]                               
  Daniel Aravena         : Magnetic Suceptibility                        
  Michael Atanasov       : Ab Initio Ligand Field Theory (pilot matlab implementation)
  Alexander A. Auer      : GIAO ZORA, VPT2 properties, NMR spectrum      
  Ute Becker             : All parallelization in ORCA, NUMFREQ, NUMCALC 
  Giovanni Bistoni       : ED, misc. LED, open-shell LED, HFLD           
  Dmytro Bykov           : pre 5.0 version of the SCF Hessian            
  Marcos Casanova-Páez   : Triplet and SCS-CIS(D). UHF-(DLPNO)-IP/EA/STEOM-CCSD. UHF-CVS-IP/STEOM-CCSD   
  Vijay G. Chilkuri      : MRCI spin determinant printing, contributions to CSF-ICE 
  Pauline Colinet        : FMM embedding                                 
  Dipayan Datta          : RHF DLPNO-CCSD density                        
  Achintya Kumar Dutta   : EOM-CC, STEOM-CC                              
  Nicolas Foglia         : Exact transition moments, OPA infrastructure, MCD improvements    
  Dmitry Ganyushin       : Spin-Orbit,Spin-Spin,Magnetic field MRCI      
  Miquel Garcia-Rates    : C-PCM and meta-GGA Hessian, CCSD/C-PCM, Gaussian charge scheme 
  Tiago L. C. Gouveia    : GS-ROHF, GS-ROCIS                             
  Yang Guo               : DLPNO-NEVPT2, F12-NEVPT2, CIM, IAO-localization        
  Andreas Hansen         : Spin unrestricted coupled pair/coupled cluster methods 
  Ingolf Harden          : AUTO-CI MPn and infrastructure                
  Benjamin Helmich-Paris : MC-RPA, TRAH-(SCF,CASSCF), AVAS, COSX integrals, SCF dyn. polar., MC-PDFT, srDFT 
  Lee Huntington         : MR-EOM, pCC                                   
  Robert Izsak           : Overlap fitted RIJCOSX, COSX-SCS-MP3, EOM     
  Riya Kayal             : Wick's Theorem for AUTO-CI, AUTO-CI UHF-CCSDT 
  Emily Kempfer          : AUTO-CI RHF CISDT and CCSDT, approximate NEVPT4
  Christian Kollmar      : KDIIS, OOCD, Brueckner-CCSD(T), CCSD density, CASPT2, CASPT2-K, improved NEVPT2 
  Axel Koslowski         : Symmetry handling                             
  Simone Kossmann        : meta-GGA functionals, TD-DFT gradient, OOMP2, (MP2 Hessian; deprecated post 5.0) 
  Lucas Lang             : DCDCAS, Hyperfine gauge corrections, ICE-SOC+SSC
  Marvin Lechner         : AUTO-CI (C++ implementation), FIC-MRCC        
  Spencer Leger          : CASSCF response                               
  Dagmar Lenk            : GEPOL surface, SMD, ORCA-2-JSON               
  Dimitrios Liakos       : Extrapolation schemes; Compound Job, Property file
  Dimitrios Manganas     : Further ROCIS development; embedding schemes. LFT, Crystal Embedding 
  Dimitrios Pantazis     : SARC Basis sets                               
  Anastasios Papadopoulos: AUTO-CI, single reference methods and gradients 
  Taras Petrenko         : pre 6.0 DFT Hessian and TD-DFT gradient,  ECA, NRVS 
  Petra Pikulova         : Analytic Raman intensities                    
  Peter Pinski           : DLPNO-MP2, DLPNO-MP2 Gradient                 
  Shashank Vittal Rao    : ES-AILFT, MagRelax                            
  Christoph Reimann      : Effective Core Potentials                     
  Marius Retegan         : Local ZFS, SOC                                
  Christoph Riplinger    : Optimizer, TS searches, QM/MM, DLPNO-CCSD(T), (RO)-DLPNO pert. Triples 
  Michael Roemelt        : Original ROCIS implementation, recursive CI coupling coefficients
  Masaaki Saitow         : Open-shell DLPNO-CCSD energy and density      
  Barbara Sandhoefer     : DKH picture change effects                    
  Yorick L. A. Schmerwitz: GMF and freeze-and-release deltaSCF, NEB S-IDPP initial path                    
  Kantharuban Sivalingam : CASSCF convergence/infrastructure, NEVPT2, NEVPT3, NEVPT4(SD), FIC-MRCI and CEPA variants
  Bernardo de Souza      : ESD, SOC TD-DFT                               
  Georgi L. Stoychev     : AutoAux, RI-MP2 NMR, DLPNO-MP2 response, X2C  
  Van Anh Tran           : RI-MP2 g-tensors                              
  Willem Van den Heuvel  : Paramagnetic NMR                              
  Zikuan Wang            : NOTCH, Electric field optimization            
  Frank Wennmohs         : Technical directorship and infrastructure     
  Hang Xu                : AUTO-CI-Response properties                   
                                                                         
[FACCTs GmbH]                                                            
  Markus Bursch, Nicolas Foglia, Miquel Garcia-Rates, Ingolf Harden, Hagen Neugebauer, Anastasios Papadopoulos, 
  Christoph Riplinger, Bernardo de Souza, Georgi L. Stoychev                                                    
                                                                 
  APM, various basis sets, CI-OPT, improved COSX, DLPNO-Multilevel,           
  DOCKER, DRACO, updates on ESD, Fragmentator, GOAT, IRC, LR-CPCM, L-BFGS, MBIS, meta-GGA TD-DFT gradient, ML-optimized integration grids, 
  MM, NACMEs, nearIR, NEB, NEB-TS, NL-DFT gradient (VV10), 2- and 3-layer-ONIOM, interface openCOSMO-RS, QMMM,   
  Crystal-QMMM, RESP, rigid body optimization, SF, symmetry and pop. for TD-DFT, various functionals, SOLVATOR                                   
                                                                         
[Other institutions]                                                     
  V. Asgeirsson          : NEB                                           
  Christoph Bannwarth    : sTDA-DFT, sTD-DFT, PBEh-3c, B97-3c, D3        
  Giovanni Bistoni       : ETS/NOCV, ADLD/ADEX, COVALED                  
  Martin Brehm           : Molecular dynamics                            
  Ronald Cardenas        : ETS/NOCV                                      
  Martina Colucci        : COVALED                                       
  Sebastian Ehlert       : rSCAN, r2SCAN, r2SCAN-3c, D4, dhf basis sets  
  Marvin Friede          : D4 for Fr, Ra, Ac-Lr                          
  Lars Goerigk           : TD-DFT with DH, B97 family of functionals     
  Stefan Grimme          : VdW corrections, initial TS optimization, DFT functionals, gCP, sTDA/sTD-DF 
  Waldemar Hujo          : DFT-NL                                        
  H. Jonsson             : NEB                                           
  Holger Kruse           : gCP                                           
  Marcel Mueller         : wB97X-3c, vDZP basis set                      
  Hagen Neugebauer       : wr2SCAN, Native XTB                           
  Gianluca Regni         : ADLD/ADEX                                     
  Tobias Risthaus        : pre 6.0 range-separated hybrid DFT and stability analysis
  Lukas Wittmann         : regularized MP2, r2SCAN double-hybrids, wr2SCAN        
                                                                         
We gratefully acknowledge several colleagues who have allowed us to      
interface, adapt or use parts of their codes:                            
  Ed Valeev, F. Pavosevic, A. Kumar             : LibInt (2-el integral package), F12 methods 
  Garnet Chan, S. Sharma, J. Yang, R. Olivares  : DMRG                   
  Ulf Ekstrom                                   : XCFun DFT Library      
  Mihaly Kallay                                 : mrcc  (arbitrary order and MRCC methods)
  Frank Weinhold                                : gennbo (NPA and NBO analysis)           
  Simon Mueller                                 : openCOSMO-RS                            
  Christopher J. Cramer and Donald G. Truhlar   : smd solvation model                     
  S Lehtola, MJT Oliveira, MAL Marques          : LibXC Library                           
  Liviu Ungur et al                             : ANISO software                          


 Your calculation uses the libint2 library for the computation of 2-el integrals
 For citations please refer to: http://libint.valeyev.net

 Your ORCA version has been built with support for libXC version: 7.0.0
 For citations please refer to: https://libxc.gitlab.io

 This ORCA versions uses:
   CBLAS   interface :  Fast vector & matrix operations
   LAPACKE interface :  Fast linear algebra routines
   SCALAPACK package :  Parallel linear algebra routines
   Shared memory     :  Shared parallel matrices
   BLAS/LAPACK       :  OpenBLAS 0.3.29  USE64BITINT DYNAMIC_ARCH NO_AFFINITY SkylakeX SINGLE_THREADED
        Core in use  :  SkylakeX
   Copyright (c) 2011-2014, The OpenBLAS Project


  ***********************************
  * Starting time: Wed Sep 17 17:25:45 2025
  * Host name:     computational-ch-1-genericvnf-vm-0
  * Process ID:    266382
  * Working dir.:  /home/ubuntu/i-PP/sp
  ***********************************

Your calculation utilizes the atom-pairwise dispersion correction
with the Becke-Johnson damping scheme (D3BJ)


Warning: RI is on but no J-basis has been assigned. Assigning Def2/J (nothing to worry about!)
================================================================================

----- Orbital basis set information -----
Your calculation utilizes the basis: def2-TZVP
   F. Weigend and R. Ahlrichs, Phys. Chem. Chem. Phys. 7, 3297 (2005).

----- AuxJ basis set information -----
Your calculation utilizes the auxiliary basis: def2/J
   H-Rn: F. Weigend, Phys. Chem. Chem. Phys. 8, 1057 (2006).
   Fr-Lr: K. Eichkorn, F. Weigend, O. Treutler, R. Ahlrichs; Theor. Chem. Acc. 97, 119 (1997).

================================================================================
                                        WARNINGS
                       Please study these warnings very carefully!
================================================================================


================================================================================
                                       INPUT FILE
================================================================================
NAME = i-PP_sp.inp
|  1> ! B3LYP D3BJ def2-TZVP TightSCF SP
|  2> 
|  3> %pal
|  4>   nprocs 24
|  5> end
|  6> 
|  7> * xyz 0 1
|  8> C      0.1071705144   -1.7940344365    1.1963960852
|  9> C      1.2125007519   -1.6511442406    0.1273905721
| 10> H     19.4669738473    6.5396023265    5.1073401344
| 11> H     18.5362436879    6.6146853440    6.5984927130
| 12> C      0.5754057727   -1.2075647089    2.5377151032
| 13> C      0.7527673791   -1.1112602125   -1.2362619053
| 14> H      1.9847333640   -0.9730212912    0.5019222556
| 15> H      1.7100058554   -2.6166320447   -0.0210405665
| 16> C      1.9646682914   -0.9013460700   -2.1700384536
| 17> H     -0.6670612791   -3.6534252870    0.3663182099
| 18> C     -0.3119397040   -1.9996693239   -1.8849322747
| 19> C      1.9929884189    0.4284766654   -2.9401455877
| 20> H      2.8831940902   -0.9522950471   -1.5781596383
| 21> H      2.0243613682   -1.7295567378   -2.8857536244
| 22> C      3.3076576820    0.5601486003   -3.7395913569
| 23> H     -0.6045669517   -1.6169763805   -2.8626338977
| 24> C      0.7662930618    0.6104596735   -3.8381611146
| 25> C      4.0185900197    1.9188519110   -3.6361259852
| 26> H      4.0130397063   -0.2011315279   -3.3937941628
| 27> H      3.1204266896    0.3351754578   -4.7960722864
| 28> C      5.3732444338    1.8780414325   -4.3774539453
| 29> H      0.8202987416    1.5447505404   -4.3969421102
| 30> C      3.1440811758    3.0761832985   -4.1258080381
| 31> C      6.5720578663    2.4464546022   -3.6035343940
| 32> H      5.6101039584    0.8410559370   -4.6323166529
| 33> H      5.2850067328    2.4062847242   -5.3337671695
| 34> C      7.8642017268    2.1897329463   -4.3923050900
| 35> H      3.6791089444    4.0248936593   -4.0743251725
| 36> C      6.3875941490    3.9195253320   -3.2378076166
| 37> C      9.1788515781    2.5656168063   -3.6729971872
| 38> H      7.8872966409    1.1256085724   -4.6445324732
| 39> H      7.8084327912    2.7207633073   -5.3495563329
| 40> C     10.2046134646    1.4289049211   -3.8078787262
| 41> H      7.2293804400    4.2948109819   -2.6550097601
| 42> C      9.7233038594    3.9091119713   -4.1648692909
| 43> C     11.5372778974    1.6287763914   -3.0543153166
| 44> H      9.7241965594    0.5162014371   -3.4435730199
| 45> H     10.4070567493    1.2555859361   -4.8713379160
| 46> C     11.9340712342    0.3379144578   -2.3196370189
| 47> H     10.5911168432    4.2334517169   -3.5886465021
| 48> C     12.6421410635    2.1339231874   -3.9861375818
| 49> C     13.1978373452    0.4256122873   -1.4374802517
| 50> H     11.0843971898    0.0481787026   -1.6944950336
| 51> H     12.0525862141   -0.4680583288   -3.0535051906
| 52> C     12.9534451663   -0.2534603079   -0.0803995337
| 53> H     13.5530394009    2.3839330512   -3.4402982632
| 54> C     14.4287542294   -0.1370282821   -2.1529335085
| 55> C     14.1023226663   -0.1311648252    0.9444574785
| 56> H     12.0477063469    0.1876823787    0.3457705765
| 57> H     12.7195230818   -1.3113337546   -0.2477433720
| 58> C     13.5550714972    0.2704555768    2.3233906264
| 59> H     15.3399111065    0.0123265436   -1.5717416096
| 60> C     14.9467820448   -1.4069516806    1.0033896699
| 61> C     14.6199741593    0.5598221916    3.4038077440
| 62> H     12.9399566229    1.1635818618    2.1807956126
| 63> H     12.8707176360   -0.5096616583    2.6767732963
| 64> C     14.2930311556    1.8665092932    4.1439700232
| 65> H     15.8195389731   -1.2871169240    1.6469300699
| 66> C     14.7938782536   -0.6237294266    4.3593089671
| 67> C     15.3535479204    2.3458881604    5.1590924831
| 68> H     14.1505825426    2.6415409527    3.3852140852
| 69> H     13.3244365947    1.7590414640    4.6462069290
| 70> C     15.6218760228    3.8489965188    4.9804195801
| 71> H     15.6223110196   -0.4686271678    5.0521926496
| 72> C     14.9650978235    1.9850242105    6.5951336060
| 73> C     16.7413166267    4.4450104098    5.8598195671
| 74> H     15.8752489425    4.0074568246    3.9278440703
| 75> H     14.6899091758    4.4016751799    5.1488960559
| 76> C     17.6256053048    5.3920095059    5.0346297153
| 77> H     15.7588052541    2.2254682072    7.3038719829
| 78> C     16.1780166601    5.1422406931    7.1018882843
| 79> C     18.8323283779    5.9580396937    5.7789987882
| 80> H     17.9754071106    4.8483518799    4.1514343784
| 81> H     17.0055881376    6.2146382257    4.6591618823
| 82> H     19.4435490733    5.1553422244    6.2008435489
| 83> H     -0.2504764845   -3.2678966553    4.1530607526
| 84> C     -0.3652399771   -3.2439035000    1.3304893527
| 85> C     -0.4914229605   -1.1636187444    3.6546157013
| 86> H      1.4514297022   -1.7677756770    2.8844621619
| 87> H      0.9298256304   -0.1913355686    2.3424887955
| 88> C     -0.5104516556    0.2243498010    4.3169850656
| 89> H     -0.6416694529   -0.7758032226    6.9091134844
| 90> C     -0.3031346261   -2.3034160784    4.6587105366
| 91> C     -1.6106220491    0.4524307359    5.3785685727
| 92> H      0.4745590151    0.4246348014    4.7553599426
| 93> H     -0.6327062350    0.9552236778    3.5133315656
| 94> C     -2.2627496241    1.8498046542    5.2579133070
| 95> H     -4.0229150668    0.2838941169    6.8534776162
| 96> C     -1.0707403543    0.2193195760    6.7949126909
| 97> C     -3.7953333730    1.8831553471    5.3795173402
| 98> H     -1.8311257950    2.5259809402    6.0053460933
| 99> H     -2.0111285696    2.2807076313    4.2856430988
|100> C     -4.3257944117    3.3112195113    5.1229414512
|101> H     -6.5584569829    1.5870968784    4.8024245084
|102> C     -4.2953045627    1.3313456453    6.7167231443
|103> C     -5.5278062466    3.4095660845    4.1729869207
|104> H     -4.5881523277    3.7826757300    6.0772893890
|105> H     -3.5225088224    3.9220875521    4.7004320695
|106> C     -5.8749916609    4.8746083395    3.9038549146
|107> H     -6.1832039948    5.3741578486    4.8269578953
|108> C     -6.7571766152    2.6522342090    4.6773707940
|109> H     -5.0176151812    5.4189790014    3.5016962551
|110> H     -6.6961078104    4.9627810968    3.1889624659
|111> H     -5.2250857166    2.9555126941    3.2207106632
|112> H     -7.0884989425    3.0477279017    5.6420165992
|113> H     -7.5876604004    2.7524258029    3.9749135001
|114> H     -4.1838956262    1.2339634883    4.5845678117
|115> H     -3.8706575890    1.9006222432    7.5482635116
|116> H     -5.3807749177    1.4010437626    6.7909426168
|117> H     -2.3981900993   -0.2865493797    5.1864101851
|118> H     -0.2832918980    0.9455037506    7.0145948142
|119> H     -1.8477743038    0.3382838955    7.5500584422
|120> H     -1.4737831369   -1.2953734237    3.1838645252
|121> H      0.6273399572   -2.1722382197    5.2178853931
|122> H     -1.1228928474   -2.3530039829    5.3765153140
|123> H     -0.7512704055   -1.1906563257    0.8750280252
|124> H      0.4408991242   -3.8727087933    1.7186912493
|125> H     -1.2159517205   -3.3343453120    2.0077843552
|126> H      0.3002409573   -0.1294765218   -1.0471121540
|127> H      0.0733107022   -3.0129219906   -2.0295684723
|128> H     -1.2134019033   -2.0679105405   -1.2742349850
|129> H      1.9773717914    1.2264822824   -2.1870616668
|130> H      0.7008976980   -0.2049941236   -4.5638226559
|131> H     -0.1609951155    0.6237158805   -3.2635066596
|132> H      4.2230350433    2.0827808969   -2.5704670569
|133> H      2.8509148465    2.9191084235   -5.1675764694
|134> H      2.2339668214    3.1782783825   -3.5330044380
|135> H      6.6469001985    1.8798476005   -2.6652461908
|136> H      6.2989267090    4.5362548005   -4.1368682200
|137> H      5.4889203246    4.0713431418   -2.6387778370
|138> H      8.9611498747    2.6648698851   -2.6020397034
|139> H     10.0236068732    3.8385130024   -5.2140748486
|140> H      8.9683191324    4.6922423926   -4.0921235293
|141> H     11.3754137279    2.3908752079   -2.2811485322
|142> H     12.8929641261    1.3705059788   -4.7278070375
|143> H     12.3274341421    3.0265795030   -4.5262318000
|144> H     13.3875989352    1.4857835881   -1.2265035127
|145> H     14.3125584015   -1.2110507195   -2.3232662358
|146> H     14.5770777811    0.3358697131   -3.1236831130
|147> H     14.7564394137    0.6876821510    0.6189095427
|148> H     14.3537719002   -2.2390384972    1.3932526700
|149> H     15.3043229692   -1.6925176178    0.0139718682
|150> H     15.5782780576    0.7213990632    2.8940995081
|151> H     13.8854774976   -0.7736454643    4.9494410116
|152> H     14.9888987441   -1.5476290691    3.8144954455
|153> H     16.2951610168    1.8317475890    4.9279475329
|154> H     14.0677241937    2.5324912514    6.8966374813
|155> H     14.7491757793    0.9209527988    6.6914428190
|156> H     17.3823439370    3.6197637401    6.1958492118
|157> H     15.6181099922    6.0367270062    6.8126701798
|158> H     15.4976295688    4.4917455625    7.6506467556
|159> H     16.9666274951    5.4503701974    7.7898172490
|160> **                         ****END OF INPUT****
================================================================================

                       ****************************
                       * Single Point Calculation *
                       ****************************

---------------------------------
CARTESIAN COORDINATES (ANGSTROEM)
---------------------------------
  C      0.107171   -1.794034    1.196396
  C      1.212501   -1.651144    0.127391
  H     19.466974    6.539602    5.107340
  H     18.536244    6.614685    6.598493
  C      0.575406   -1.207565    2.537715
  C      0.752767   -1.111260   -1.236262
  H      1.984733   -0.973021    0.501922
  H      1.710006   -2.616632   -0.021041
  C      1.964668   -0.901346   -2.170038
  H     -0.667061   -3.653425    0.366318
  C     -0.311940   -1.999669   -1.884932
  C      1.992988    0.428477   -2.940146
  H      2.883194   -0.952295   -1.578160
  H      2.024361   -1.729557   -2.885754
  C      3.307658    0.560149   -3.739591
  H     -0.604567   -1.616976   -2.862634
  C      0.766293    0.610460   -3.838161
  C      4.018590    1.918852   -3.636126
  H      4.013040   -0.201132   -3.393794
  H      3.120427    0.335175   -4.796072
  C      5.373244    1.878041   -4.377454
  H      0.820299    1.544751   -4.396942
  C      3.144081    3.076183   -4.125808
  C      6.572058    2.446455   -3.603534
  H      5.610104    0.841056   -4.632317
  H      5.285007    2.406285   -5.333767
  C      7.864202    2.189733   -4.392305
  H      3.679109    4.024894   -4.074325
  C      6.387594    3.919525   -3.237808
  C      9.178852    2.565617   -3.672997
  H      7.887297    1.125609   -4.644532
  H      7.808433    2.720763   -5.349556
  C     10.204613    1.428905   -3.807879
  H      7.229380    4.294811   -2.655010
  C      9.723304    3.909112   -4.164869
  C     11.537278    1.628776   -3.054315
  H      9.724197    0.516201   -3.443573
  H     10.407057    1.255586   -4.871338
  C     11.934071    0.337914   -2.319637
  H     10.591117    4.233452   -3.588647
  C     12.642141    2.133923   -3.986138
  C     13.197837    0.425612   -1.437480
  H     11.084397    0.048179   -1.694495
  H     12.052586   -0.468058   -3.053505
  C     12.953445   -0.253460   -0.080400
  H     13.553039    2.383933   -3.440298
  C     14.428754   -0.137028   -2.152934
  C     14.102323   -0.131165    0.944457
  H     12.047706    0.187682    0.345771
  H     12.719523   -1.311334   -0.247743
  C     13.555071    0.270456    2.323391
  H     15.339911    0.012327   -1.571742
  C     14.946782   -1.406952    1.003390
  C     14.619974    0.559822    3.403808
  H     12.939957    1.163582    2.180796
  H     12.870718   -0.509662    2.676773
  C     14.293031    1.866509    4.143970
  H     15.819539   -1.287117    1.646930
  C     14.793878   -0.623729    4.359309
  C     15.353548    2.345888    5.159092
  H     14.150583    2.641541    3.385214
  H     13.324437    1.759041    4.646207
  C     15.621876    3.848997    4.980420
  H     15.622311   -0.468627    5.052193
  C     14.965098    1.985024    6.595134
  C     16.741317    4.445010    5.859820
  H     15.875249    4.007457    3.927844
  H     14.689909    4.401675    5.148896
  C     17.625605    5.392010    5.034630
  H     15.758805    2.225468    7.303872
  C     16.178017    5.142241    7.101888
  C     18.832328    5.958040    5.778999
  H     17.975407    4.848352    4.151434
  H     17.005588    6.214638    4.659162
  H     19.443549    5.155342    6.200844
  H     -0.250476   -3.267897    4.153061
  C     -0.365240   -3.243904    1.330489
  C     -0.491423   -1.163619    3.654616
  H      1.451430   -1.767776    2.884462
  H      0.929826   -0.191336    2.342489
  C     -0.510452    0.224350    4.316985
  H     -0.641669   -0.775803    6.909113
  C     -0.303135   -2.303416    4.658711
  C     -1.610622    0.452431    5.378569
  H      0.474559    0.424635    4.755360
  H     -0.632706    0.955224    3.513332
  C     -2.262750    1.849805    5.257913
  H     -4.022915    0.283894    6.853478
  C     -1.070740    0.219320    6.794913
  C     -3.795333    1.883155    5.379517
  H     -1.831126    2.525981    6.005346
  H     -2.011129    2.280708    4.285643
  C     -4.325794    3.311220    5.122941
  H     -6.558457    1.587097    4.802425
  C     -4.295305    1.331346    6.716723
  C     -5.527806    3.409566    4.172987
  H     -4.588152    3.782676    6.077289
  H     -3.522509    3.922088    4.700432
  C     -5.874992    4.874608    3.903855
  H     -6.183204    5.374158    4.826958
  C     -6.757177    2.652234    4.677371
  H     -5.017615    5.418979    3.501696
  H     -6.696108    4.962781    3.188962
  H     -5.225086    2.955513    3.220711
  H     -7.088499    3.047728    5.642017
  H     -7.587660    2.752426    3.974914
  H     -4.183896    1.233963    4.584568
  H     -3.870658    1.900622    7.548264
  H     -5.380775    1.401044    6.790943
  H     -2.398190   -0.286549    5.186410
  H     -0.283292    0.945504    7.014595
  H     -1.847774    0.338284    7.550058
  H     -1.473783   -1.295373    3.183865
  H      0.627340   -2.172238    5.217885
  H     -1.122893   -2.353004    5.376515
  H     -0.751270   -1.190656    0.875028
  H      0.440899   -3.872709    1.718691
  H     -1.215952   -3.334345    2.007784
  H      0.300241   -0.129477   -1.047112
  H      0.073311   -3.012922   -2.029568
  H     -1.213402   -2.067911   -1.274235
  H      1.977372    1.226482   -2.187062
  H      0.700898   -0.204994   -4.563823
  H     -0.160995    0.623716   -3.263507
  H      4.223035    2.082781   -2.570467
  H      2.850915    2.919108   -5.167576
  H      2.233967    3.178278   -3.533004
  H      6.646900    1.879848   -2.665246
  H      6.298927    4.536255   -4.136868
  H      5.488920    4.071343   -2.638778
  H      8.961150    2.664870   -2.602040
  H     10.023607    3.838513   -5.214075
  H      8.968319    4.692242   -4.092124
  H     11.375414    2.390875   -2.281149
  H     12.892964    1.370506   -4.727807
  H     12.327434    3.026580   -4.526232
  H     13.387599    1.485784   -1.226504
  H     14.312558   -1.211051   -2.323266
  H     14.577078    0.335870   -3.123683
  H     14.756439    0.687682    0.618910
  H     14.353772   -2.239038    1.393253
  H     15.304323   -1.692518    0.013972
  H     15.578278    0.721399    2.894100
  H     13.885477   -0.773645    4.949441
  H     14.988899   -1.547629    3.814495
  H     16.295161    1.831748    4.927948
  H     14.067724    2.532491    6.896637
  H     14.749176    0.920953    6.691443
  H     17.382344    3.619764    6.195849
  H     15.618110    6.036727    6.812670
  H     15.497630    4.491746    7.650647
  H     16.966627    5.450370    7.789817

----------------------------
CARTESIAN COORDINATES (A.U.)
----------------------------
  NO LB      ZA    FRAG     MASS         X           Y           Z
   0 C     6.0000    0    12.011    0.202523   -3.390234    2.260861
   1 C     6.0000    0    12.011    2.291294   -3.120210    0.240733
   2 H     1.0000    0     1.008   36.787249   12.358057    9.651474
   3 H     1.0000    0     1.008   35.028424   12.499944   12.469344
   4 C     6.0000    0    12.011    1.087359   -2.281967    4.795587
   5 C     6.0000    0    12.011    1.422524   -2.099977   -2.336196
   6 H     1.0000    0     1.008    3.750603   -1.838744    0.948496
   7 H     1.0000    0     1.008    3.231443   -4.944718   -0.039761
   8 C     6.0000    0    12.011    3.712685   -1.703297   -4.100778
   9 H     1.0000    0     1.008   -1.260563   -6.903973    0.692241
  10 C     6.0000    0    12.011   -0.589481   -3.778827   -3.562006
  11 C     6.0000    0    12.011    3.766202    0.809704   -5.556070
  12 H     1.0000    0     1.008    5.448447   -1.799577   -2.982290
  13 H     1.0000    0     1.008    3.825489   -3.268389   -5.453284
  14 C     6.0000    0    12.011    6.250567    1.058527   -7.066804
  15 H     1.0000    0     1.008   -1.142466   -3.055643   -5.409594
  16 C     6.0000    0    12.011    1.448084    1.153602   -7.253073
  17 C     6.0000    0    12.011    7.594035    3.626105   -6.871282
  18 H     1.0000    0     1.008    7.583546   -0.380084   -6.413342
  19 H     1.0000    0     1.008    5.896752    0.633390   -9.063263
  20 C     6.0000    0    12.011   10.153960    3.548984   -8.272189
  21 H     1.0000    0     1.008    1.550140    2.919155   -8.309016
  22 C     6.0000    0    12.011    5.941452    5.813144   -7.796647
  23 C     6.0000    0    12.011   12.419390    4.623129   -6.809693
  24 H     1.0000    0     1.008   10.601560    1.589365   -8.753810
  25 H     1.0000    0     1.008    9.987215    4.547219  -10.079359
  26 C     6.0000    0    12.011   14.861188    4.137996   -8.300254
  27 H     1.0000    0     1.008    6.952508    7.605947   -7.699359
  28 C     6.0000    0    12.011   12.070804    7.406829   -6.118570
  29 C     6.0000    0    12.011   17.345516    4.848313   -6.940959
  30 H     1.0000    0     1.008   14.904831    2.127092   -8.776894
  31 H     1.0000    0     1.008   14.755800    5.141498  -10.109196
  32 C     6.0000    0    12.011   19.283925    2.700239   -7.195848
  33 H     1.0000    0     1.008   13.661549    8.116017   -5.017241
  34 C     6.0000    0    12.011   18.374381    7.387151   -7.870462
  35 C     6.0000    0    12.011   21.802296    3.077941   -5.771819
  36 H     1.0000    0     1.008   18.376068    0.975479   -6.507410
  37 H     1.0000    0     1.008   19.666487    2.372714   -9.205495
  38 C     6.0000    0    12.011   22.552126    0.638566   -4.383479
  39 H     1.0000    0     1.008   20.014310    8.000064   -6.781559
  40 C     6.0000    0    12.011   23.890184    4.032530   -7.532708
  41 C     6.0000    0    12.011   24.940298    0.804291   -2.716444
  42 H     1.0000    0     1.008   20.946475    0.091045   -3.202132
  43 H     1.0000    0     1.008   22.776087   -0.884502   -5.770289
  44 C     6.0000    0    12.011   24.478464   -0.478971   -0.151933
  45 H     1.0000    0     1.008   25.611533    4.504981   -6.501222
  46 C     6.0000    0    12.011   27.266394   -0.258946   -4.068455
  47 C     6.0000    0    12.011   26.649528   -0.247866    1.784766
  48 H     1.0000    0     1.008   22.766866    0.354668    0.653412
  49 H     1.0000    0     1.008   24.036415   -2.478062   -0.468167
  50 C     6.0000    0    12.011   25.615373    0.511087    4.390572
  51 H     1.0000    0     1.008   28.988231    0.023294   -2.970161
  52 C     6.0000    0    12.011   28.245325   -2.658753    1.896132
  53 C     6.0000    0    12.011   27.627747    1.057911    6.432264
  54 H     1.0000    0     1.008   24.452974    2.198851    4.121106
  55 H     1.0000    0     1.008   24.322131   -0.963121    5.058368
  56 C     6.0000    0    12.011   27.009915    3.527191    7.830968
  57 H     1.0000    0     1.008   29.894596   -2.432298    3.112247
  58 C     6.0000    0    12.011   27.956378   -1.178678    8.237900
  59 C     6.0000    0    12.011   29.014001    4.433086    9.749272
  60 H     1.0000    0     1.008   26.740726    4.991789    6.397128
  61 H     1.0000    0     1.008   25.179536    3.324107    8.780059
  62 C     6.0000    0    12.011   29.521067    7.273549    9.411629
  63 H     1.0000    0     1.008   29.521889   -0.885577    9.547260
  64 C     6.0000    0    12.011   28.279936    3.751152   12.462996
  65 C     6.0000    0    12.011   31.636504    8.399852   11.073454
  66 H     1.0000    0     1.008   29.999873    7.572996    7.422550
  67 H     1.0000    0     1.008   27.759905    8.317961    9.730003
  68 C     6.0000    0    12.011   33.307567   10.189421    9.514071
  69 H     1.0000    0     1.008   29.779826    4.205525   13.802318
  70 C     6.0000    0    12.011   30.572021    9.717427   13.420624
  71 C     6.0000    0    12.011   35.587943   11.259063   10.920725
  72 H     1.0000    0     1.008   33.968597    9.162057    7.845074
  73 H     1.0000    0     1.008   32.135904   11.743964    8.804540
  74 H     1.0000    0     1.008   36.742983    9.742185   11.717896
  75 H     1.0000    0     1.008   -0.473332   -6.175430    7.848147
  76 C     6.0000    0    12.011   -0.690204   -6.130089    2.514261
  77 C     6.0000    0    12.011   -0.928655   -2.198921    6.906223
  78 H     1.0000    0     1.008    2.742805   -3.340612    5.450844
  79 H     1.0000    0     1.008    1.757116   -0.361572    4.426662
  80 C     6.0000    0    12.011   -0.964614    0.423960    8.157919
  81 H     1.0000    0     1.008   -1.212580   -1.466056   13.056332
  82 C     6.0000    0    12.011   -0.572841   -4.352826    8.803687
  83 C     6.0000    0    12.011   -3.043635    0.854970   10.164022
  84 H     1.0000    0     1.008    0.896787    0.802443    8.986328
  85 H     1.0000    0     1.008   -1.195642    1.805111    6.639234
  86 C     6.0000    0    12.011   -4.275977    3.495624    9.936016
  87 H     1.0000    0     1.008   -7.602208    0.536482   12.951196
  88 C     6.0000    0    12.011   -2.023406    0.414454   12.840524
  89 C     6.0000    0    12.011   -7.172141    3.558648   10.165815
  90 H     1.0000    0     1.008   -3.460326    4.773412   11.348459
  91 H     1.0000    0     1.008   -3.800482    4.309913    8.098692
  92 C     6.0000    0    12.011   -8.174567    6.257298    9.680956
  93 H     1.0000    0     1.008  -12.393688    2.999178    9.075267
  94 C     6.0000    0    12.011   -8.116949    2.515879   12.692767
  95 C     6.0000    0    12.011  -10.446040    6.443146    7.885802
  96 H     1.0000    0     1.008   -8.670351    7.148221   11.484413
  97 H     1.0000    0     1.008   -6.656577    7.411671    8.882529
  98 C     6.0000    0    12.011  -11.102125    9.211675    7.377217
  99 H     1.0000    0     1.008  -11.684562   10.155687    9.121628
 100 C     6.0000    0    12.011  -12.769213    5.011996    8.838950
 101 H     1.0000    0     1.008   -9.481919   10.240386    6.617247
 102 H     1.0000    0     1.008  -12.653810    9.378297    6.026266
 103 H     1.0000    0     1.008   -9.873981    5.585110    6.086261
 104 H     1.0000    0     1.008  -13.395322    5.759371   10.661866
 105 H     1.0000    0     1.008  -14.338600    5.201331    7.511498
 106 H     1.0000    0     1.008   -7.906417    2.331853    8.663578
 107 H     1.0000    0     1.008   -7.314483    3.591656   14.264151
 108 H     1.0000    0     1.008  -10.168191    2.647589   12.833022
 109 H     1.0000    0     1.008   -4.531923   -0.541500    9.800895
 110 H     1.0000    0     1.008   -0.535344    1.786743   13.255663
 111 H     1.0000    0     1.008   -3.491787    0.639264   14.267543
 112 H     1.0000    0     1.008   -2.785047   -2.447901    6.016632
 113 H     1.0000    0     1.008    1.185501   -4.104935    9.860374
 114 H     1.0000    0     1.008   -2.121960   -4.446533   10.160141
 115 H     1.0000    0     1.008   -1.419695   -2.250014    1.653563
 116 H     1.0000    0     1.008    0.833179   -7.318359    3.247856
 117 H     1.0000    0     1.008   -2.297816   -6.300999    3.794163
 118 H     1.0000    0     1.008    0.567373   -0.244675   -1.978755
 119 H     1.0000    0     1.008    0.138537   -5.693597   -3.835329
 120 H     1.0000    0     1.008   -2.292997   -3.907785   -2.407955
 121 H     1.0000    0     1.008    3.736691    2.317716   -4.132948
 122 H     1.0000    0     1.008    1.324505   -0.387383   -8.624375
 123 H     1.0000    0     1.008   -0.304237    1.178652   -6.167134
 124 H     1.0000    0     1.008    7.980380    3.935885   -4.857479
 125 H     1.0000    0     1.008    5.387448    5.516315   -9.765304
 126 H     1.0000    0     1.008    4.221585    6.006076   -6.676411
 127 H     1.0000    0     1.008   12.560821    3.552397   -5.036585
 128 H     1.0000    0     1.008   11.903246    8.572279   -7.817548
 129 H     1.0000    0     1.008   10.372556    7.693724   -4.986567
 130 H     1.0000    0     1.008   16.934119    5.035874   -4.917142
 131 H     1.0000    0     1.008   18.941872    7.253738   -9.853174
 132 H     1.0000    0     1.008   16.947667    8.867053   -7.732993
 133 H     1.0000    0     1.008   21.496417    4.518099   -4.310746
 134 H     1.0000    0     1.008   24.364171    2.589881   -8.934261
 135 H     1.0000    0     1.008   23.295474    5.719406   -8.553339
 136 H     1.0000    0     1.008   25.298896    2.807724   -2.317756
 137 H     1.0000    0     1.008   27.046816   -2.288554   -4.390337
 138 H     1.0000    0     1.008   27.546685    0.634702   -5.902906
 139 H     1.0000    0     1.008   27.885629    1.299531    1.169570
 140 H     1.0000    0     1.008   27.124698   -4.231170    2.632866
 141 H     1.0000    0     1.008   28.920979   -3.198395    0.026403
 142 H     1.0000    0     1.008   29.438679    1.363247    5.469055
 143 H     1.0000    0     1.008   26.239750   -1.461978    9.353088
 144 H     1.0000    0     1.008   28.324914   -2.924595    7.208352
 145 H     1.0000    0     1.008   30.793392    3.461501    9.312471
 146 H     1.0000    0     1.008   26.584146    4.785715   13.032756
 147 H     1.0000    0     1.008   27.871903    1.740349   12.644994
 148 H     1.0000    0     1.008   32.847870    6.840362   11.708458
 149 H     1.0000    0     1.008   29.513951   11.407761   12.874081
 150 H     1.0000    0     1.008   29.286276    8.488169   14.457627
 151 H     1.0000    0     1.008   32.062279   10.299707   14.720621

--------------------------------
INTERNAL COORDINATES (ANGSTROEM)
--------------------------------
 C      0   0   0     0.000000000000     0.00000000     0.00000000
 C      1   0   0     1.544326820674     0.00000000     0.00000000
 H      2   1   0    20.618293211617   120.21489579     0.00000000
 H      3   2   1     1.759384012033    75.71772274   358.68140500
 C      1   2   3     1.536986566810   110.53264118     2.30768212
 C      2   1   3     1.537002803180   115.63012210   224.33748807
 H      2   1   3     1.093831762036   109.00473654   345.25935593
 H      2   1   3     1.096225264615   109.69797599   100.65336373
 C      6   2   1     1.544249465148   110.45624501   175.10372895
 H      1   2   3     2.178485364663    93.99029399   214.46519977
 C      6   2   1     1.530896851574   112.34071682   300.44735416
 C      9   6   2     1.536976101050   115.78841325   225.53861383
 H      9   6   2     1.093894863929   108.99353956   346.46249229
 H      9   6   2     1.096241022490   109.56160698   101.80165579
 C     12   9   6     1.544281809668   110.41665454   175.25715223
 H     11   6   2     1.089947273331   111.28749260   181.62889434
 C     12   9   6     1.531120896899   112.45430240   300.64102577
 C     15  12   9     1.536946504741   115.74149197   225.83471348
 H     15  12   9     1.093931868649   109.02380981   346.72797128
 H     15  12   9     1.096275655918   109.63320279   102.09476587
 C     18  15  12     1.544772223087   110.48564654   175.10778972
 H     17  12   9     1.089978090820   111.27586057   181.68524182
 C     18  15  12     1.531002995256   112.48965438   300.49744096
 C     21  18  15     1.535968309997   115.64910395   227.49048284
 H     21  18  15     1.093799045527   109.07233980   348.63784706
 H     21  18  15     1.096066535336   109.59549892   103.94703621
 C     24  21  18     1.535480698578   109.63932467   173.40932867
 H     23  18  15     1.090392840821   111.24349629   181.86922206
 C     24  21  18     1.528960533729   112.51349984   299.63547216
 C     27  24  21     1.544990863003   115.86305486   186.44412249
 H     27  24  21     1.093852234546   107.38962127   308.55388464
 H     27  24  21     1.096099156334   108.95389578    62.62177735
 C     30  27  24     1.537040789086   110.30904947   133.31483532
 H     29  24  21     1.090457161138   111.48644687   177.72189337
 C     30  27  24     1.530799043438   111.50399722   259.14116935
 C     33  30  27     1.543956251769   115.94224269   183.92517726
 H     33  30  27     1.093867770871   107.14185308   305.77869402
 H     33  30  27     1.096343104348   108.98168418    59.81901786
 C     36  33  30     1.537374933078   110.32348318   135.29471437
 H     35  30  27     1.091021699033   111.96892873   173.87697292
 C     36  33  30     1.531074340206   111.62542249   261.06917105
 C     39  36  33     1.543695648283   115.89234005   184.30924593
 H     39  36  33     1.093935688856   107.15804589   306.12583217
 H     39  36  33     1.096449007768   108.98107465    60.13988055
 C     42  39  36     1.537054066006   110.44323878   135.31437423
 H     41  36  33     1.090954295470   111.93960013   173.56733141
 C     42  39  36     1.530880187607   111.73435384   260.97536994
 C     45  42  39     1.544411729608   115.63440151   184.97932016
 H     45  42  39     1.093887856106   107.30496744   306.82505538
 H     45  42  39     1.096275390158   108.99456664    60.93490489
 C     48  45  42     1.536957844497   110.55967756   133.52758700
 H     47  42  39     1.091007672747   111.85359601   174.41597885
 C     48  45  42     1.531083520103   111.70632848   259.37705468
 C     51  48  45     1.544361313136   115.53745513   185.71910097
 H     51  48  45     1.093788922738   107.25616778   307.50332931
 H     51  48  45     1.096267494376   108.99777873    61.59488730
 C     54  51  48     1.536933020241   110.45846135   133.25413775
 H     53  48  45     1.090967126552   111.86395481   173.97952387
 C     54  51  48     1.531019155433   111.72096932   259.13983242
 C     57  54  51     1.544335946397   115.74601769   185.72655987
 H     57  54  51     1.093926987519   107.21862967   307.57642256
 H     57  54  51     1.096342404208   108.97847003    61.64779936
 C     60  57  54     1.537289404730   110.30239435   134.06021664
 H     59  54  51     1.091075320930   111.88105166   173.50511386
 C     60  57  54     1.530794034081   111.66623969   260.02773682
 C     63  60  57     1.543283564696   115.97587275   184.45548355
 H     63  60  57     1.094176726485   107.08722373   306.26674004
 H     63  60  57     1.096540117479   109.06294797    60.27532914
 C     66  63  60     1.536135425587   110.45942574   136.66119056
 H     65  60  57     1.090914702362   111.89324597   173.88527777
 C     66  63  60     1.531721782364   111.78391777   261.45113347
 C      4   3   2     1.091063676645    36.30965659    48.66087493
 H     69  66  63     1.094513097578   108.13369418   306.41864171
 H     69  66  63     1.096410229741   108.72152325    61.17965679
 H     72   4   3     1.093557025416   107.68021934   115.70132379
 H      5   1   2     2.745248768172    97.78663181   225.99801475
 C     10   1   2     1.090151450477    40.88461994   131.41271390
 C      5   1   2     1.545160748859   115.55210973   174.23677588
 H      5   1   2     1.096123978642   108.93682283   298.27333057
 H      5   1   2     1.093822843218   107.30481088    52.38136970
 C     78   5   1     1.538035093559   110.21262905   227.92069752
 H     81  78   5     2.781484121920    94.44106297   224.33344471
 C     76   5   1     1.090264815150    67.88338330   211.97838374
 C     81  78   5     1.545753974650   115.95899139   175.21066369
 H     81  78   5     1.096600490408   109.01815864   299.62867882
 H     81  78   5     1.093152209912   106.74624874    53.48328840
 C     84  81  78     1.546764990153   112.32153966   221.73753780
 H     84  81  78     2.832475751315   162.74375629   332.66476293
 C     82  81  78     1.089684836986    65.95443381   206.41709560
 C     87  84  81     1.537762256332   115.69702122   136.25153848
 H     87  84  81     1.096434799535   109.75479328   260.03818425
 H     87  84  81     1.092840284989   109.18017868    15.61270113
 C     90  87  84     1.544858361620   110.43411949   184.78563789
 H     90  87  84     2.838228115742   162.16053109   286.99529049
 C     88  84  81     1.090895287096    95.17766092   240.13438145
 C     93  90  87     1.535225752037   115.52021475   133.52381878
 H     93  90  87     1.096304076715   109.58008346   256.92920815
 H     93  90  87     1.094048298236   109.15760874    12.32944269
 C     96  93  90     1.529483101425   110.36312416   185.08722891
 H     99  96  93     1.093921234727   110.66415106   296.76975950
 C     94  90  87     1.090708694741    95.67115936   250.92548628
 H     99  96  93     1.092321121690   111.34462616    56.53824220
 H     99  96  93     1.092280815225   111.29264544   177.08230245
 H     96  93  90     1.097558322466   107.12252110   302.22330154
 H    101  94  90     1.093952135618   107.88637996   267.12517458
 H    101  94  90     1.092331416156   107.56710804   151.22258088
 H     90  87  84     1.097440407041   106.42491669   301.47169500
 H     95  88  84     1.093553967410   107.91218652   269.60652162
 H     95  88  84     1.090234951392   107.54482015   153.84721523
 H     84  81  78     1.096941151964   106.93548281   338.81888325
 H     89  82  81     1.093470969924   107.56962841   267.53430721
 H     89  82  81     1.090036409344   107.92390298   151.74828402
 H     78   5   1     1.097268190323   107.73416756   343.59733491
 H     83  76   5     1.093465637742   107.58954517   265.54182214
 H     83  76   5     1.090736540197   107.53543578   149.46819083
 H      1   2   3     1.097389350932   107.83655315   118.35920405
 H     77  10   1     1.093598216920   107.58043290   238.94481603
 H     77  10   1     1.091154760851   107.57732516   122.97694695
 H      6   2   1     1.097477565223   106.53797309    58.25228742
 H     11   6   2     1.093626294357   110.40861100   300.96501634
 H     11   6   2     1.090982190531   111.94884592    61.18180987
 H     12   9   6     1.097356931785   106.56325054    58.47099877
 H     17  12   9     1.093538349274   110.39448226   301.05808369
 H     17  12   9     1.090993507513   111.92991234    61.29916289
 H     18  15  12     1.097405773430   106.47522333    58.24935836
 H     23  18  15     1.093572346690   110.44100955   301.21625190
 H     23  18  15     1.090938885801   111.92957959    61.46450330
 H     24  21  18     1.098648998238   107.01563531    57.49988782
 H     29  24  21     1.093858821246   110.87796221   297.99944577
 H     29  24  21     1.090641997578   111.40157051    58.09418685
 H     30  27  24     1.097358253909   107.91276002    17.27983518
 H     35  30  27     1.093617125330   110.44305559   294.15533468
 H     35  30  27     1.090223436090   111.26545766    53.44688161
 H     36  33  30     1.097625387816   107.84204619    19.32790734
 H     41  36  33     1.093522576190   110.36311929   293.79754823
 H     41  36  33     1.089760298731   111.31474616    53.17451935
 H     42  39  36     1.097489786959   107.83543596    19.27852201
 H     47  42  39     1.093635636055   110.38314006   294.47533665
 H     47  42  39     1.089948248538   111.48124003    53.96410626
 H     48  45  42     1.097433619024   107.79579264    17.53349901
 H     53  48  45     1.093628209587   110.40388068   294.13072591
 H     53  48  45     1.090105959726   111.36115672    53.57493503
 H     54  51  48     1.097385954292   107.74594895    17.28099116
 H     59  54  51     1.093582453136   110.38970339   293.69079140
 H     59  54  51     1.090158389613   111.31997510    53.09976375
 H     60  57  54     1.097453296717   107.77814171    18.18380524
 H     65  60  57     1.093574039173   110.41728592   294.10283308
 H     65  60  57     1.090020991943   111.30161424    53.49471731
 H     66  63  60     1.097662972191   107.92041253    20.05075951
 H     71  66  63     1.094188444946   110.24052918   292.57518945
 H     71  66  63     1.089590000305   111.48675767    51.95848554
 H     71  66  63     1.090915716714   111.96701341   172.57218354

---------------------------
INTERNAL COORDINATES (A.U.)
---------------------------
 C      0   0   0     0.000000000000     0.00000000     0.00000000
 C      1   0   0     2.918354752344     0.00000000     0.00000000
 H      2   1   0    38.962927518843   120.21489579     0.00000000
 H      3   2   1     3.324753947143    75.71772274   358.68140500
 C      1   2   3     2.904483682787   110.53264118     2.30768212
 C      2   1   3     2.904514365079   115.63012210   224.33748807
 H      2   1   3     2.067042466833   109.00473654   345.25935593
 H      2   1   3     2.071565531208   109.69797599   100.65336373
 C      6   2   1     2.918208571584   110.45624501   175.10372895
 H      1   2   3     4.116740725969    93.99029399   214.46519977
 C      6   2   1     2.892975788757   112.34071682   300.44735416
 C      9   6   2     2.904463905367   115.78841325   225.53861383
 H      9   6   2     2.067161712128   108.99353956   346.46249229
 H      9   6   2     2.071595309275   109.56160698   101.80165579
 C     12   9   6     2.918269693869   110.41665454   175.25715223
 H     11   6   2     2.059701847010   111.28749260   181.62889434
 C     12   9   6     2.893399173063   112.45430240   300.64102577
 C     15  12   9     2.904407976448   115.74149197   225.83471348
 H     15  12   9     2.067231640915   109.02380981   346.72797128
 H     15  12   9     2.071660756970   109.63320279   102.09476587
 C     18  15  12     2.919196440924   110.48564654   175.10778972
 H     17  12   9     2.059760083624   111.27586057   181.68524182
 C     18  15  12     2.893176371248   112.48965438   300.49744096
 C     21  18  15     2.902559456276   115.64910395   227.49048284
 H     21  18  15     2.066980641591   109.07233980   348.63784706
 H     21  18  15     2.071265576341   109.59549892   103.94703621
 C     24  21  18     2.901638004234   109.63932467   173.40932867
 H     23  18  15     2.060543847539   111.24349629   181.86922206
 C     24  21  18     2.889316678322   112.51349984   299.63547216
 C     27  24  21     2.919609610486   115.86305486   186.44412249
 H     27  24  21     2.067081154270   107.38962127   308.55388464
 H     27  24  21     2.071327221093   108.95389578    62.62177735
 C     30  27  24     2.904586148039   110.30904947   133.31483532
 H     29  24  21     2.060665395324   111.48644687   177.72189337
 C     30  27  24     2.892790958166   111.50399722   259.14116935
 C     33  30  27     2.917654478600   115.94224269   183.92517726
 H     33  30  27     2.067110513669   107.14185308   305.77869402
 H     33  30  27     2.071788216031   108.98168418    59.81901786
 C     36  33  30     2.905217588674   110.32348318   135.29471437
 H     35  30  27     2.061732217337   111.96892873   173.87697292
 C     36  33  30     2.893311193663   111.62542249   261.06917105
 C     39  36  33     2.917162009381   115.89234005   184.30924593
 H     39  36  33     2.067238860061   107.15804589   306.12583217
 H     39  36  33     2.071988344491   108.98107465    60.13988055
 C     42  39  36     2.904611237782   110.44323878   135.31437423
 H     41  36  33     2.061604843064   111.93960013   173.56733141
 C     42  39  36     2.892944298424   111.73435384   260.97536994
 C     45  42  39     2.918515206975   115.63440151   184.97932016
 H     45  42  39     2.067148469263   107.30496744   306.82505538
 H     45  42  39     2.071660254757   108.99456664    60.93490489
 C     48  45  42     2.904429405482   110.55967756   133.52758700
 H     47  42  39     2.061705711499   111.85359601   174.41597885
 C     48  45  42     2.893328541155   111.70632848   259.37705468
 C     51  48  45     2.918419933650   115.53745513   185.71910097
 H     51  48  45     2.066961512291   107.25616778   307.50332931
 H     51  48  45     2.071645333890   108.99777873    61.59488730
 C     54  51  48     2.904382494436   110.45846135   133.25413775
 H     53  48  45     2.061629090294   111.86395481   173.97952387
 C     54  51  48     2.893206909556   111.72096932   259.13983242
 C     57  54  51     2.918371997460   115.74601769   185.72655987
 H     57  54  51     2.067222416917   107.21862967   307.57642256
 H     57  54  51     2.071786892959   108.97847003    61.64779936
 C     60  57  54     2.905055963519   110.30239435   134.06021664
 H     59  54  51     2.061833548038   111.88105166   173.50511386
 C     60  57  54     2.892781491854   111.66623969   260.02773682
 C     63  60  57     2.916383284257   115.97587275   184.45548355
 H     63  60  57     2.067694355168   107.08722373   306.26674004
 H     63  60  57     2.072160516893   109.06294797    60.27532914
 C     66  63  60     2.902875258974   110.45942574   136.66119056
 H     65  60  57     2.061530022932   111.89324597   173.88527777
 C     66  63  60     2.894534682030   111.78391777   261.45113347
 C      4   3   2     2.061811543529    36.30965659    48.66087493
 H     69  66  63     2.068330004413   108.13369418   306.41864171
 H     69  66  63     2.071915064640   108.72152325    61.17965679
 H     72   4   3     2.066523289861   107.68021934   115.70132379
 H      5   1   2     5.187768341330    97.78663181   225.99801475
 C     10   1   2     2.060087685898    40.88461994   131.41271390
 C      5   1   2     2.919930648227   115.55210973   174.23677588
 H      5   1   2     2.071374128457   108.93682283   298.27333057
 H      5   1   2     2.067025612709   107.30481088    52.38136970
 C     78   5   1     2.906465111187   110.21262905   227.92069752
 H     81  78   5     5.256243236280    94.44106297   224.33344471
 C     76   5   1     2.060301914083    67.88338330   211.97838374
 C     81  78   5     2.921051682508   115.95899139   175.21066369
 H     81  78   5     2.072274605195   109.01815864   299.62867882
 H     81  78   5     2.065758299424   106.74624874    53.48328840
 C     84  81  78     2.922962224926   112.32153966   221.73753780
 H     84  81  78     5.352603450958   162.74375629   332.66476293
 C     82  81  78     2.059205914191    65.95443381   206.41709560
 C     87  84  81     2.905949523549   115.69702122   136.25153848
 H     87  84  81     2.071961494822   109.75479328   260.03818425
 H     87  84  81     2.065168846745   109.18017868    15.61270113
 C     90  87  84     2.919359219160   110.43411949   184.78563789
 H     90  87  84     5.363473844349   162.16053109   286.99529049
 C     88  84  81     2.061493333397    95.17766092   240.13438145
 C     93  90  87     2.901156225093   115.52021475   133.52381878
 H     93  90  87     2.071714464493   109.58008346   256.92920815
 H     93  90  87     2.067451660948   109.15760874    12.32944269
 C     96  93  90     2.890304188154   110.36312416   185.08722891
 H     99  96  93     2.067211545716   110.66415106   296.76975950
 C     94  90  87     2.061140724948    95.67115936   250.92548628
 H     99  96  93     2.064187770293   111.34462616    56.53824220
 H     99  96  93     2.064111602111   111.29264544   177.08230245
 H     96  93  90     2.074084645468   107.12252110   302.22330154
 H    101  94  90     2.067269939936   107.88637996   267.12517458
 H    101  94  90     2.064207224013   107.56710804   151.22258088
 H     90  87  84     2.073861817607   106.42491669   301.47169500
 H     95  88  84     2.066517511068   107.91218652   269.60652162
 H     95  88  84     2.060245479760   107.54482015   153.84721523
 H     84  81  78     2.072918362241   106.93548281   338.81888325
 H     89  82  81     2.066360668549   107.56962841   267.53430721
 H     89  82  81     2.059870289664   107.92390298   151.74828402
 H     78   5   1     2.073536375173   107.73416756   343.59733491
 H     83  76   5     2.066350592186   107.58954517   265.54182214
 H     83  76   5     2.061193345232   107.53543578   149.46819083
 H      1   2   3     2.073765335544   107.83655315   118.35920405
 H     77  10   1     2.066601130523   107.58043290   238.94481603
 H     77  10   1     2.061983667733   107.57732516   122.97694695
 H      6   2   1     2.073932036395   106.53797309    58.25228742
 H     11   6   2     2.066654189189   110.40861100   300.96501634
 H     11   6   2     2.061657557090   111.94884592    61.18180987
 H     12   9   6     2.073704072233   106.56325054    58.47099877
 H     17  12   9     2.066487997068   110.39448226   301.05808369
 H     17  12   9     2.061678943086   111.92991234    61.29916289
 H     18  15  12     2.073796369568   106.47522333    58.24935836
 H     23  18  15     2.066552242873   110.44100955   301.21625190
 H     23  18  15     2.061575723010   111.92957959    61.46450330
 H     24  21  18     2.076145723976   107.01563531    57.49988782
 H     29  24  21     2.067093601329   110.87796221   297.99944577
 H     29  24  21     2.061014685576   111.40157051    58.09418685
 H     30  27  24     2.073706570686   107.91276002    17.27983518
 H     35  30  27     2.066636862240   110.44305559   294.15533468
 H     35  30  27     2.060223718992   111.26545766    53.44688161
 H     36  33  30     2.074211380611   107.84204619    19.32790734
 H     41  36  33     2.066458190259   110.36311929   293.79754823
 H     41  36  33     2.059348516222   111.31474616    53.17451935
 H     42  39  36     2.073955132127   107.83543596    19.27852201
 H     47  42  39     2.066671842441   110.38314006   294.47533665
 H     47  42  39     2.059703689883   111.48124003    53.96410626
 H     48  45  42     2.073848990114   107.79579264    17.53349901
 H     53  48  45     2.066657808451   110.40388068   294.13072591
 H     53  48  45     2.060001720838   111.36115672    53.57493503
 H     54  51  48     2.073758916824   107.74594895    17.28099116
 H     59  54  51     2.066571341289   110.38970339   293.69079140
 H     59  54  51     2.060100798966   111.31997510    53.09976375
 H     60  57  54     2.073886175564   107.77814171    18.18380524
 H     65  60  57     2.066555441203   110.41728592   294.10283308
 H     65  60  57     2.059841154998   111.30161424    53.49471731
 H     66  63  60     2.074282404787   107.92041253    20.05075951
 H     71  66  63     2.067716499849   110.24052918   292.57518945
 H     71  66  63     2.059026698836   111.48675767    51.95848554
 H     71  66  63     2.061531939779   111.96701341   172.57218354

---------------------
BASIS SET INFORMATION
---------------------
There are 2 groups of distinct atoms

 Group   1 Type C   : 11s6p2d1f contracted to 5s3p2d1f pattern {62111/411/11/1}
 Group   2 Type H   : 5s1p contracted to 3s1p pattern {311/1}

Atom   0C    basis set group =>   1
Atom   1C    basis set group =>   1
Atom   2H    basis set group =>   2
Atom   3H    basis set group =>   2
Atom   4C    basis set group =>   1
Atom   5C    basis set group =>   1
Atom   6H    basis set group =>   2
Atom   7H    basis set group =>   2
Atom   8C    basis set group =>   1
Atom   9H    basis set group =>   2
Atom  10C    basis set group =>   1
Atom  11C    basis set group =>   1
Atom  12H    basis set group =>   2
Atom  13H    basis set group =>   2
Atom  14C    basis set group =>   1
Atom  15H    basis set group =>   2
Atom  16C    basis set group =>   1
Atom  17C    basis set group =>   1
Atom  18H    basis set group =>   2
Atom  19H    basis set group =>   2
Atom  20C    basis set group =>   1
Atom  21H    basis set group =>   2
Atom  22C    basis set group =>   1
Atom  23C    basis set group =>   1
Atom  24H    basis set group =>   2
Atom  25H    basis set group =>   2
Atom  26C    basis set group =>   1
Atom  27H    basis set group =>   2
Atom  28C    basis set group =>   1
Atom  29C    basis set group =>   1
Atom  30H    basis set group =>   2
Atom  31H    basis set group =>   2
Atom  32C    basis set group =>   1
Atom  33H    basis set group =>   2
Atom  34C    basis set group =>   1
Atom  35C    basis set group =>   1
Atom  36H    basis set group =>   2
Atom  37H    basis set group =>   2
Atom  38C    basis set group =>   1
Atom  39H    basis set group =>   2
Atom  40C    basis set group =>   1
Atom  41C    basis set group =>   1
Atom  42H    basis set group =>   2
Atom  43H    basis set group =>   2
Atom  44C    basis set group =>   1
Atom  45H    basis set group =>   2
Atom  46C    basis set group =>   1
Atom  47C    basis set group =>   1
Atom  48H    basis set group =>   2
Atom  49H    basis set group =>   2
Atom  50C    basis set group =>   1
Atom  51H    basis set group =>   2
Atom  52C    basis set group =>   1
Atom  53C    basis set group =>   1
Atom  54H    basis set group =>   2
Atom  55H    basis set group =>   2
Atom  56C    basis set group =>   1
Atom  57H    basis set group =>   2
Atom  58C    basis set group =>   1
Atom  59C    basis set group =>   1
Atom  60H    basis set group =>   2
Atom  61H    basis set group =>   2
Atom  62C    basis set group =>   1
Atom  63H    basis set group =>   2
Atom  64C    basis set group =>   1
Atom  65C    basis set group =>   1
Atom  66H    basis set group =>   2
Atom  67H    basis set group =>   2
Atom  68C    basis set group =>   1
Atom  69H    basis set group =>   2
Atom  70C    basis set group =>   1
Atom  71C    basis set group =>   1
Atom  72H    basis set group =>   2
Atom  73H    basis set group =>   2
Atom  74H    basis set group =>   2
Atom  75H    basis set group =>   2
Atom  76C    basis set group =>   1
Atom  77C    basis set group =>   1
Atom  78H    basis set group =>   2
Atom  79H    basis set group =>   2
Atom  80C    basis set group =>   1
Atom  81H    basis set group =>   2
Atom  82C    basis set group =>   1
Atom  83C    basis set group =>   1
Atom  84H    basis set group =>   2
Atom  85H    basis set group =>   2
Atom  86C    basis set group =>   1
Atom  87H    basis set group =>   2
Atom  88C    basis set group =>   1
Atom  89C    basis set group =>   1
Atom  90H    basis set group =>   2
Atom  91H    basis set group =>   2
Atom  92C    basis set group =>   1
Atom  93H    basis set group =>   2
Atom  94C    basis set group =>   1
Atom  95C    basis set group =>   1
Atom  96H    basis set group =>   2
Atom  97H    basis set group =>   2
Atom  98C    basis set group =>   1
Atom  99H    basis set group =>   2
Atom 100C    basis set group =>   1
Atom 101H    basis set group =>   2
Atom 102H    basis set group =>   2
Atom 103H    basis set group =>   2
Atom 104H    basis set group =>   2
Atom 105H    basis set group =>   2
Atom 106H    basis set group =>   2
Atom 107H    basis set group =>   2
Atom 108H    basis set group =>   2
Atom 109H    basis set group =>   2
Atom 110H    basis set group =>   2
Atom 111H    basis set group =>   2
Atom 112H    basis set group =>   2
Atom 113H    basis set group =>   2
Atom 114H    basis set group =>   2
Atom 115H    basis set group =>   2
Atom 116H    basis set group =>   2
Atom 117H    basis set group =>   2
Atom 118H    basis set group =>   2
Atom 119H    basis set group =>   2
Atom 120H    basis set group =>   2
Atom 121H    basis set group =>   2
Atom 122H    basis set group =>   2
Atom 123H    basis set group =>   2
Atom 124H    basis set group =>   2
Atom 125H    basis set group =>   2
Atom 126H    basis set group =>   2
Atom 127H    basis set group =>   2
Atom 128H    basis set group =>   2
Atom 129H    basis set group =>   2
Atom 130H    basis set group =>   2
Atom 131H    basis set group =>   2
Atom 132H    basis set group =>   2
Atom 133H    basis set group =>   2
Atom 134H    basis set group =>   2
Atom 135H    basis set group =>   2
Atom 136H    basis set group =>   2
Atom 137H    basis set group =>   2
Atom 138H    basis set group =>   2
Atom 139H    basis set group =>   2
Atom 140H    basis set group =>   2
Atom 141H    basis set group =>   2
Atom 142H    basis set group =>   2
Atom 143H    basis set group =>   2
Atom 144H    basis set group =>   2
Atom 145H    basis set group =>   2
Atom 146H    basis set group =>   2
Atom 147H    basis set group =>   2
Atom 148H    basis set group =>   2
Atom 149H    basis set group =>   2
Atom 150H    basis set group =>   2
Atom 151H    basis set group =>   2
---------------------------------
AUXILIARY/J BASIS SET INFORMATION
---------------------------------
There are 2 groups of distinct atoms

 Group   1 Type C   : 12s5p4d2f1g contracted to 6s4p3d1f1g pattern {711111/2111/211/2/1}
 Group   2 Type H   : 5s2p1d contracted to 3s1p1d pattern {311/2/1}

Atom   0C    basis set group =>   1
Atom   1C    basis set group =>   1
Atom   2H    basis set group =>   2
Atom   3H    basis set group =>   2
Atom   4C    basis set group =>   1
Atom   5C    basis set group =>   1
Atom   6H    basis set group =>   2
Atom   7H    basis set group =>   2
Atom   8C    basis set group =>   1
Atom   9H    basis set group =>   2
Atom  10C    basis set group =>   1
Atom  11C    basis set group =>   1
Atom  12H    basis set group =>   2
Atom  13H    basis set group =>   2
Atom  14C    basis set group =>   1
Atom  15H    basis set group =>   2
Atom  16C    basis set group =>   1
Atom  17C    basis set group =>   1
Atom  18H    basis set group =>   2
Atom  19H    basis set group =>   2
Atom  20C    basis set group =>   1
Atom  21H    basis set group =>   2
Atom  22C    basis set group =>   1
Atom  23C    basis set group =>   1
Atom  24H    basis set group =>   2
Atom  25H    basis set group =>   2
Atom  26C    basis set group =>   1
Atom  27H    basis set group =>   2
Atom  28C    basis set group =>   1
Atom  29C    basis set group =>   1
Atom  30H    basis set group =>   2
Atom  31H    basis set group =>   2
Atom  32C    basis set group =>   1
Atom  33H    basis set group =>   2
Atom  34C    basis set group =>   1
Atom  35C    basis set group =>   1
Atom  36H    basis set group =>   2
Atom  37H    basis set group =>   2
Atom  38C    basis set group =>   1
Atom  39H    basis set group =>   2
Atom  40C    basis set group =>   1
Atom  41C    basis set group =>   1
Atom  42H    basis set group =>   2
Atom  43H    basis set group =>   2
Atom  44C    basis set group =>   1
Atom  45H    basis set group =>   2
Atom  46C    basis set group =>   1
Atom  47C    basis set group =>   1
Atom  48H    basis set group =>   2
Atom  49H    basis set group =>   2
Atom  50C    basis set group =>   1
Atom  51H    basis set group =>   2
Atom  52C    basis set group =>   1
Atom  53C    basis set group =>   1
Atom  54H    basis set group =>   2
Atom  55H    basis set group =>   2
Atom  56C    basis set group =>   1
Atom  57H    basis set group =>   2
Atom  58C    basis set group =>   1
Atom  59C    basis set group =>   1
Atom  60H    basis set group =>   2
Atom  61H    basis set group =>   2
Atom  62C    basis set group =>   1
Atom  63H    basis set group =>   2
Atom  64C    basis set group =>   1
Atom  65C    basis set group =>   1
Atom  66H    basis set group =>   2
Atom  67H    basis set group =>   2
Atom  68C    basis set group =>   1
Atom  69H    basis set group =>   2
Atom  70C    basis set group =>   1
Atom  71C    basis set group =>   1
Atom  72H    basis set group =>   2
Atom  73H    basis set group =>   2
Atom  74H    basis set group =>   2
Atom  75H    basis set group =>   2
Atom  76C    basis set group =>   1
Atom  77C    basis set group =>   1
Atom  78H    basis set group =>   2
Atom  79H    basis set group =>   2
Atom  80C    basis set group =>   1
Atom  81H    basis set group =>   2
Atom  82C    basis set group =>   1
Atom  83C    basis set group =>   1
Atom  84H    basis set group =>   2
Atom  85H    basis set group =>   2
Atom  86C    basis set group =>   1
Atom  87H    basis set group =>   2
Atom  88C    basis set group =>   1
Atom  89C    basis set group =>   1
Atom  90H    basis set group =>   2
Atom  91H    basis set group =>   2
Atom  92C    basis set group =>   1
Atom  93H    basis set group =>   2
Atom  94C    basis set group =>   1
Atom  95C    basis set group =>   1
Atom  96H    basis set group =>   2
Atom  97H    basis set group =>   2
Atom  98C    basis set group =>   1
Atom  99H    basis set group =>   2
Atom 100C    basis set group =>   1
Atom 101H    basis set group =>   2
Atom 102H    basis set group =>   2
Atom 103H    basis set group =>   2
Atom 104H    basis set group =>   2
Atom 105H    basis set group =>   2
Atom 106H    basis set group =>   2
Atom 107H    basis set group =>   2
Atom 108H    basis set group =>   2
Atom 109H    basis set group =>   2
Atom 110H    basis set group =>   2
Atom 111H    basis set group =>   2
Atom 112H    basis set group =>   2
Atom 113H    basis set group =>   2
Atom 114H    basis set group =>   2
Atom 115H    basis set group =>   2
Atom 116H    basis set group =>   2
Atom 117H    basis set group =>   2
Atom 118H    basis set group =>   2
Atom 119H    basis set group =>   2
Atom 120H    basis set group =>   2
Atom 121H    basis set group =>   2
Atom 122H    basis set group =>   2
Atom 123H    basis set group =>   2
Atom 124H    basis set group =>   2
Atom 125H    basis set group =>   2
Atom 126H    basis set group =>   2
Atom 127H    basis set group =>   2
Atom 128H    basis set group =>   2
Atom 129H    basis set group =>   2
Atom 130H    basis set group =>   2
Atom 131H    basis set group =>   2
Atom 132H    basis set group =>   2
Atom 133H    basis set group =>   2
Atom 134H    basis set group =>   2
Atom 135H    basis set group =>   2
Atom 136H    basis set group =>   2
Atom 137H    basis set group =>   2
Atom 138H    basis set group =>   2
Atom 139H    basis set group =>   2
Atom 140H    basis set group =>   2
Atom 141H    basis set group =>   2
Atom 142H    basis set group =>   2
Atom 143H    basis set group =>   2
Atom 144H    basis set group =>   2
Atom 145H    basis set group =>   2
Atom 146H    basis set group =>   2
Atom 147H    basis set group =>   2
Atom 148H    basis set group =>   2
Atom 149H    basis set group =>   2
Atom 150H    basis set group =>   2
Atom 151H    basis set group =>   2


           ************************************************************
           *        Program running with 24 parallel MPI-processes    *
           *              working on a common directory               *
           ************************************************************
------------------------------------------------------------------------------
                             ORCA STARTUP CALCULATIONS
                           -- RI-GTO INTEGRALS CHOSEN --
------------------------------------------------------------------------------
------------------------------------------------------------------------------
                   ___                                                        
                  /   \      - P O W E R E D   B Y -                         
                 /     \                                                     
                 |  |  |   _    _      __       _____    __    __             
                 |  |  |  | |  | |    /  \     |  _  \  |  |  /  |          
                  \  \/   | |  | |   /    \    | | | |  |  | /  /          
                 / \  \   | |__| |  /  /\  \   | |_| |  |  |/  /          
                |  |  |   |  __  | /  /__\  \  |    /   |      \           
                |  |  |   | |  | | |   __   |  |    \   |  |\   \          
                \     /   | |  | | |  |  |  |  | |\  \  |  | \   \       
                 \___/    |_|  |_| |__|  |__|  |_| \__\ |__|  \__/        
                                                                              
                      - O R C A' S   B I G   F R I E N D -                    
                                      &                                       
                       - I N T E G R A L  F E E D E R -                       
                                                                              
 v1 FN, 2020, v2 2021, v3 2022-2024                                           
------------------------------------------------------------------------------


----------------------
SHARK INTEGRAL PACKAGE
----------------------

Number of atoms                             ...    152
Number of basis functions                   ...   2162
Number of shells                            ...    958
Maximum angular momentum                    ...      3
Integral batch strategy                     ... SHARK/LIBINT Hybrid
RI-J (if used) integral strategy            ... SPLIT-RIJ (Revised 2003 algorithm where possible)
Printlevel                                  ...      1
Contraction scheme used                     ... SEGMENTED contraction
Prescreening option                         ... SCHWARTZ
   Thresh                                   ... 2.500e-11
   Tcut                                     ... 2.500e-12
   Tpresel                                  ... 2.500e-12 
Coulomb Range Separation                    ... NOT USED
Exchange Range Separation                   ... NOT USED
Multipole approximations                    ... NOT USED
Finite Nucleus Model                        ... NOT USED
CABS basis                                  ... NOT available
Auxiliary Coulomb fitting basis             ... AVAILABLE
   # of basis functions in Aux-J            ...   3572
   # of shells in Aux-J                     ...   1260
   Maximum angular momentum in Aux-J        ...      4
Auxiliary J/K fitting basis                 ... NOT available
Auxiliary Correlation fitting basis         ... NOT available
Auxiliary 'external' fitting basis          ... NOT available

Checking pre-screening integrals            ... done (  1.0 sec) Dimension = 958
   => SHARK Basis and OBASIS are compatible. Storing Pre-screening
Shell pair information
Shell pair cut-off parameter TPreSel        ...   2.5e-12
Total number of shell pairs                 ...    459361
Shell pairs after pre-screening             ...    130331
Total number of primitive shell pairs       ...   1301484
Primitive shell pairs kept                  ...    243658
          la=0 lb=0:  45072 shell pairs
          la=1 lb=0:  40891 shell pairs
          la=1 lb=1:   9363 shell pairs
          la=2 lb=0:  15145 shell pairs
          la=2 lb=1:   6813 shell pairs
          la=2 lb=2:   1296 shell pairs
          la=3 lb=0:   7108 shell pairs
          la=3 lb=1:   3210 shell pairs
          la=3 lb=2:   1134 shell pairs
          la=3 lb=3:    299 shell pairs

Checking whether 4 symmetric matrices of dimension 2162 fit in memory
:Max Core in MB      =   4096.00
 MB in use           =    154.00
 MB left             =   3942.00
 MB needed           =     71.36
 Data fit in memory  = YES
Calculating RI/J V-Matrix + Cholesky decomp.... done ( 14.3 sec)
Calculating Nuclear repulsion               ... done (  0.0 sec) ENN=   6035.345914709081 Eh

Diagonalization of the overlap matrix:
Smallest eigenvalue                        ... 4.137e-05
Time for diagonalization                   ...  686.492 sec
Threshold for overlap eigenvalues          ... 1.000e-07
Number of eigenvalues below threshold      ... 0
Time for construction of square roots      ...   22.984 sec
Total time needed                          ...  710.322 sec

-------------------
DFT GRID GENERATION
-------------------

General Integration Accuracy     IntAcc      ... 4.388
Radial Grid Type                 RadialGrid  ... OptM3 with GC (2021)
Angular Grid (max. ang.)         AngularGrid ... 4 (Lebedev-302)
Angular grid pruning method      GridPruning ... 4 (adaptive)
Weight generation scheme         WeightScheme... mBecke (2022)
Basis function cutoff            BFCut       ... 1.0000e-11
Integration weight cutoff        WCut        ... 1.0000e-14
Partially contracted basis set               ... off
Rotationally invariant grid construction     ... off
Angular grids for H and He will be reduced by one unit

Total number of grid points                  ...   616749
Total number of batches                      ...     9713
Average number of points per batch           ...       63
Average number of grid points per atom       ...     4058

--------------------
COSX GRID GENERATION
--------------------

GRIDX 1
-------
General Integration Accuracy     IntAcc      ... 3.816
Radial Grid Type                 RadialGrid  ... OptM3 with GC (2021)
Angular Grid (max. ang.)         AngularGrid ... 1 (Lebedev-50)
Angular grid pruning method      GridPruning ... 4 (adaptive)
Weight generation scheme         WeightScheme... mBecke (2022)
Basis function cutoff            BFCut       ... 1.0000e-11
Integration weight cutoff        WCut        ... 1.0000e-14
Partially contracted basis set               ... on
Rotationally invariant grid construction     ... off
Angular grids for H and He will be reduced by one unit

Total number of grid points                  ...    78452
Total number of batches                      ...      692
Average number of points per batch           ...      113
Average number of grid points per atom       ...      516
UseSFitting                                  ... on

GRIDX 2
-------
General Integration Accuracy     IntAcc      ... 4.020
Radial Grid Type                 RadialGrid  ... OptM3 with GC (2021)
Angular Grid (max. ang.)         AngularGrid ... 2 (Lebedev-110)
Angular grid pruning method      GridPruning ... 4 (adaptive)
Weight generation scheme         WeightScheme... mBecke (2022)
Basis function cutoff            BFCut       ... 1.0000e-11
Integration weight cutoff        WCut        ... 1.0000e-14
Partially contracted basis set               ... on
Rotationally invariant grid construction     ... off
Angular grids for H and He will be reduced by one unit

Total number of grid points                  ...   158919
[...]
100 C      6.3622     6.0000    -0.3622     3.8673     3.8673    -0.0000
101 H      0.8963     1.0000     0.1037     0.9737     0.9737    -0.0000
102 H      0.8954     1.0000     0.1046     0.9730     0.9730    -0.0000
103 H      0.9436     1.0000     0.0564     0.9602     0.9602    -0.0000
104 H      0.8998     1.0000     0.1002     0.9772     0.9772     0.0000
105 H      0.8934     1.0000     0.1066     0.9736     0.9736     0.0000
106 H      0.9423     1.0000     0.0577     0.9734     0.9734    -0.0000
107 H      0.8930     1.0000     0.1070     0.9731     0.9731    -0.0000
108 H      0.8778     1.0000     0.1222     0.9707     0.9707    -0.0000
109 H      0.9410     1.0000     0.0590     0.9790     0.9790     0.0000
110 H      0.8959     1.0000     0.1041     0.9746     0.9746    -0.0000
111 H      0.8862     1.0000     0.1138     0.9712     0.9712    -0.0000
112 H      0.9427     1.0000     0.0573     0.9754     0.9754     0.0000
113 H      0.8926     1.0000     0.1074     0.9729     0.9729    -0.0000
114 H      0.8885     1.0000     0.1115     0.9686     0.9686    -0.0000
115 H      0.9441     1.0000     0.0559     0.9750     0.9750     0.0000
116 H      0.8947     1.0000     0.1053     0.9744     0.9744     0.0000
117 H      0.8880     1.0000     0.1120     0.9693     0.9693     0.0000
118 H      0.9443     1.0000     0.0557     0.9748     0.9748     0.0000
119 H      0.8944     1.0000     0.1056     0.9744     0.9744    -0.0000
120 H      0.8881     1.0000     0.1119     0.9692     0.9692     0.0000
121 H      0.9439     1.0000     0.0561     0.9746     0.9746     0.0000
122 H      0.8942     1.0000     0.1058     0.9741     0.9741    -0.0000
123 H      0.8879     1.0000     0.1121     0.9689     0.9689    -0.0000
124 H      0.9439     1.0000     0.0561     0.9747     0.9747    -0.0000
125 H      0.8935     1.0000     0.1065     0.9738     0.9738     0.0000
126 H      0.8873     1.0000     0.1127     0.9688     0.9688    -0.0000
127 H      0.9451     1.0000     0.0549     0.9664     0.9664     0.0000
128 H      0.8948     1.0000     0.1052     0.9750     0.9750     0.0000
129 H      0.8801     1.0000     0.1199     0.9693     0.9693    -0.0000
130 H      0.9443     1.0000     0.0557     0.9743     0.9743    -0.0000
131 H      0.8932     1.0000     0.1068     0.9738     0.9738     0.0000
132 H      0.8778     1.0000     0.1222     0.9709     0.9709     0.0000
133 H      0.9439     1.0000     0.0561     0.9747     0.9747    -0.0000
134 H      0.8940     1.0000     0.1060     0.9741     0.9741     0.0000
135 H      0.8760     1.0000     0.1240     0.9707     0.9707     0.0000
136 H      0.9440     1.0000     0.0560     0.9746     0.9746    -0.0000
137 H      0.8946     1.0000     0.1054     0.9745     0.9745    -0.0000
138 H      0.8767     1.0000     0.1233     0.9708     0.9708     0.0000
139 H      0.9429     1.0000     0.0571     0.9746     0.9746    -0.0000
140 H      0.8945     1.0000     0.1055     0.9742     0.9742     0.0000
141 H      0.8766     1.0000     0.1234     0.9706     0.9706    -0.0000
142 H      0.9435     1.0000     0.0565     0.9747     0.9747    -0.0000
143 H      0.8944     1.0000     0.1056     0.9740     0.9740     0.0000
144 H      0.8765     1.0000     0.1235     0.9705     0.9705    -0.0000
145 H      0.9429     1.0000     0.0571     0.9741     0.9741     0.0000
146 H      0.8947     1.0000     0.1053     0.9742     0.9742    -0.0000
147 H      0.8768     1.0000     0.1232     0.9708     0.9708     0.0000
148 H      0.9482     1.0000     0.0518     0.9762     0.9762    -0.0000
149 H      0.9002     1.0000     0.0998     0.9750     0.9750     0.0000
150 H      0.8797     1.0000     0.1203     0.9705     0.9705     0.0000
151 H      0.8906     1.0000     0.1094     0.9692     0.9692     0.0000

  Mayer bond orders larger than 0.100000
B(  0-C ,  1-C ) :   0.9103 B(  0-C ,  4-C ) :   0.9648 B(  0-C , 76-C ) :   0.9434 
B(  0-C ,115-H ) :   0.9682 B(  1-C ,  5-C ) :   0.9678 B(  1-C ,  6-H ) :   0.9823 
B(  1-C ,  7-H ) :   0.9676 B(  2-H , 71-C ) :   0.9799 B(  3-H , 71-C ) :   0.9808 
B(  4-C , 77-C ) :   0.9075 B(  4-C , 78-H ) :   0.9686 B(  4-C , 79-H ) :   0.9834 
B(  5-C ,  8-C ) :   0.9113 B(  5-C , 10-C ) :   0.9440 B(  5-C ,118-H ) :   0.9676 
B(  8-C , 11-C ) :   0.9678 B(  8-C , 12-H ) :   0.9820 B(  8-C , 13-H ) :   0.9675 
B(  9-H , 76-C ) :   0.9805 B( 10-C , 15-H ) :   0.9805 B( 10-C ,119-H ) :   0.9735 
B( 10-C ,120-H ) :   0.9778 B( 11-C , 14-C ) :   0.9124 B( 11-C , 16-C ) :   0.9413 
B( 11-C ,121-H ) :   0.9675 B( 14-C , 17-C ) :   0.9698 B( 14-C , 18-H ) :   0.9823 
B( 14-C , 19-H ) :   0.9673 B( 16-C , 21-H ) :   0.9804 B( 16-C ,122-H ) :   0.9739 
B( 16-C ,123-H ) :   0.9783 B( 17-C , 20-C ) :   0.9089 B( 17-C , 22-C ) :   0.9397 
B( 17-C ,124-H ) :   0.9685 B( 20-C , 23-C ) :   0.9822 B( 20-C , 24-H ) :   0.9780 
B( 20-C , 25-H ) :   0.9614 B( 22-C , 27-H ) :   0.9805 B( 22-C ,125-H ) :   0.9744 
B( 22-C ,126-H ) :   0.9783 B( 23-C , 26-C ) :   0.9833 B( 23-C , 28-C ) :   0.9355 
B( 23-C ,127-H ) :   0.9549 B( 26-C , 29-C ) :   0.9085 B( 26-C , 30-H ) :   0.9779 
B( 26-C , 31-H ) :   0.9611 B( 28-C , 33-H ) :   0.9788 B( 28-C ,128-H ) :   0.9747 
B( 28-C ,129-H ) :   0.9784 B( 29-C , 32-C ) :   0.9714 B( 29-C , 34-C ) :   0.9394 
B( 29-C ,130-H ) :   0.9682 B( 32-C , 35-C ) :   0.9137 B( 32-C , 36-H ) :   0.9823 
B( 32-C , 37-H ) :   0.9664 B( 34-C , 39-H ) :   0.9785 B( 34-C ,131-H ) :   0.9746 
B( 34-C ,132-H ) :   0.9804 B( 35-C , 38-C ) :   0.9694 B( 35-C , 40-C ) :   0.9418 
B( 35-C ,133-H ) :   0.9668 B( 38-C , 41-C ) :   0.9125 B( 38-C , 42-H ) :   0.9824 
B( 38-C , 43-H ) :   0.9663 B( 40-C , 45-H ) :   0.9783 B( 40-C ,134-H ) :   0.9735 
B( 40-C ,135-H ) :   0.9805 B( 41-C , 44-C ) :   0.9680 B( 41-C , 46-C ) :   0.9436 
B( 41-C ,136-H ) :   0.9675 B( 44-C , 47-C ) :   0.9103 B( 44-C , 48-H ) :   0.9821 
B( 44-C , 49-H ) :   0.9674 B( 46-C , 51-H ) :   0.9781 B( 46-C ,137-H ) :   0.9735 
B( 46-C ,138-H ) :   0.9804 B( 47-C , 50-C ) :   0.9670 B( 47-C , 52-C ) :   0.9436 
B( 47-C ,139-H ) :   0.9681 B( 50-C , 53-C ) :   0.9109 B( 50-C , 54-H ) :   0.9825 
B( 50-C , 55-H ) :   0.9677 B( 52-C , 57-H ) :   0.9780 B( 52-C ,140-H ) :   0.9735 
B( 52-C ,141-H ) :   0.9805 B( 53-C , 56-C ) :   0.9678 B( 53-C , 58-C ) :   0.9426 
B( 53-C ,142-H ) :   0.9681 B( 56-C , 59-C ) :   0.9119 B( 56-C , 60-H ) :   0.9827 
B( 56-C , 61-H ) :   0.9668 B( 58-C , 63-H ) :   0.9786 B( 58-C ,143-H ) :   0.9734 
B( 58-C ,144-H ) :   0.9804 B( 59-C , 62-C ) :   0.9713 B( 59-C , 64-C ) :   0.9414 
B( 59-C ,145-H ) :   0.9684 B( 62-C , 65-C ) :   0.9123 B( 62-C , 66-H ) :   0.9828 
B( 62-C , 67-H ) :   0.9645 B( 64-C , 69-H ) :   0.9791 B( 64-C ,146-H ) :   0.9735 
B( 64-C ,147-H ) :   0.9800 B( 65-C , 68-C ) :   0.9618 B( 65-C , 70-C ) :   0.9446 
B( 65-C ,148-H ) :   0.9667 B( 68-C , 71-C ) :   0.9586 B( 68-C , 72-H ) :   0.9744 
B( 68-C , 73-H ) :   0.9685 B( 70-C ,149-H ) :   0.9694 B( 70-C ,150-H ) :   0.9802 
B( 70-C ,151-H ) :   0.9822 B( 71-C , 74-H ) :   0.9748 B( 75-H , 82-C ) :   0.9804 
B( 76-C ,116-H ) :   0.9737 B( 76-C ,117-H ) :   0.9778 B( 77-C , 80-C ) :   0.9701 
B( 77-C , 82-C ) :   0.9416 B( 77-C ,112-H ) :   0.9675 B( 80-C , 83-C ) :   0.9125 
B( 80-C , 84-H ) :   0.9695 B( 80-C , 85-H ) :   0.9847 B( 81-H , 88-C ) :   0.9795 
B( 82-C ,113-H ) :   0.9732 B( 82-C ,114-H ) :   0.9792 B( 83-C , 86-C ) :   0.9106 
B( 83-C , 88-C ) :   0.9590 B( 83-C ,109-H ) :   0.9714 B( 86-C , 89-C ) :   0.9698 
B( 86-C , 90-H ) :   0.9697 B( 86-C , 91-H ) :   0.9847 B( 87-H , 94-C ) :   0.9781 
B( 88-C ,110-H ) :   0.9717 B( 88-C ,111-H ) :   0.9799 B( 89-C , 92-C ) :   0.9098 
B( 89-C , 94-C ) :   0.9461 B( 89-C ,106-H ) :   0.9678 B( 92-C , 95-C ) :   0.9751 
B( 92-C , 96-H ) :   0.9645 B( 92-C , 97-H ) :   0.9759 B( 93-H ,100-C ) :   0.9762 
B( 94-C ,107-H ) :   0.9731 B( 94-C ,108-H ) :   0.9804 B( 95-C , 98-C ) :   0.9607 
B( 95-C ,100-C ) :   0.9587 B( 95-C ,103-H ) :   0.9601 B( 98-C , 99-H ) :   0.9724 
B( 98-C ,101-H ) :   0.9787 B( 98-C ,102-H ) :   0.9815 B(100-C ,104-H ) :   0.9720 
B(100-C ,105-H ) :   0.9778 

-------
TIMINGS
-------

Total SCF time: 0 days 2 hours 7 min 6 sec 

Total time                  ....    7626.337 sec
Sum of individual times     ....    8340.471 sec  (109.4%)

SCF preparation             ....      99.493 sec  (  1.3%)
Fock matrix formation       ....    1070.129 sec  ( 14.0%)
  Startup                   ....       8.472 sec  (  0.8% of F)
  Split-RI-J                ....     141.538 sec  ( 13.2% of F)
  Chain of spheres X        ....     600.578 sec  ( 56.1% of F)
  XC integration            ....     296.849 sec  ( 27.7% of F)
    XC Preparation          ....       0.000 sec  (  0.0% of XC)
    Basis function eval.    ....       7.629 sec  (  2.6% of XC)
    Density eval.           ....      11.542 sec  (  3.9% of XC)
    XC-Functional eval.     ....       0.334 sec  (  0.1% of XC)
    XC-Potential eval.      ....       7.920 sec  (  2.7% of XC)
Diagonalization             ....       0.000 sec  (  0.0%)
Density matrix formation    ....      48.644 sec  (  0.6%)
Total Energy calculation    ....      38.516 sec  (  0.5%)
Population analysis         ....      44.840 sec  (  0.6%)
Orbital Transformation      ....    1286.950 sec  ( 16.9%)
Orbital Orthonormalization  ....       0.000 sec  (  0.0%)
DIIS solution               ....    4736.821 sec  ( 62.1%)
SOSCF solution              ....    1015.078 sec  ( 13.3%)
Finished LeanSCF after 7628.3 sec

Maximum memory used throughout the entire LEANSCF-calculation: 437.5 MB


-------------------------------------------------------------------------------
                          DFT DISPERSION CORRECTION                            
                                                                               
                              DFTD3 V3.1  Rev 1                                
                          USING Becke-Johnson damping                          
-------------------------------------------------------------------------------
The B3LYP functional is recognized
Active option DFTDOPT                   ...         4   

molecular C6(AA) [au] = 153884.553479 


            DFT-D V3
 parameters
 s6 scaling factor         :     1.0000 
 a1 scaling factor         :     0.3981 
 s8 scaling factor         :     1.9889 
 a2 scaling factor         :     4.4211 
 ad hoc parameters k1-k3   :    16.0000     1.3333    -4.0000 

 Edisp/kcal,au: -176.453149044983  -0.281195961999 
 E6   /kcal   : -88.768274822 
 E8   /kcal   : -87.684874223 
 % E8         :  49.693006159 

-------------------------   ----------------
Dispersion correction           -0.281195962
-------------------------   ----------------


-------------------------   --------------------
FINAL SINGLE POINT ENERGY     -1966.336983282127
-------------------------   --------------------



           ************************************************************
           *        Program running with 24 parallel MPI-processes    *
           *              working on a common directory               *
           ************************************************************

------------------------------------------------------------------------------
                              ORCA PROPERTY CALCULATIONS
------------------------------------------------------------------------------

GBWName                                 ... i-PP_sp.gbw
Number of atoms                         ...    152
Number of basis functions               ...   2162
Max core memory                         ...   4096 MB

Electric properties:
Dipole moment                           ... YES
Quadrupole moment                       ...  NO
Static polarizability (Dipole/Dipole)   ...  NO
Static polarizability (Dipole/Quad.)    ...  NO
Static polarizability (Quad./Quad.)     ...  NO
Static polarizability (Velocity)        ...  NO
Static hyperpolarizability              ...  NO

Atomic electric properties:
Dipole moment                           ...  NO
Quadrupole moment                       ...  NO
Static polarizability                   ...  NO

Choice of electric origin               ... Center of mass
Position of electric origin             ...    11.862177     2.416499     2.224219

General magnetic properties:
Magnetizability                         ...  NO

EPR properties:
g-Tensor (aka g-matrix)                 ...  NO
Zero-Field splitting spin-orbit         ...  NO
Zero-field splitting spin-spin          ...  NO
Hyperfine couplings                     ...  NO (   0 nuclei)
Quadrupole couplings                    ...  NO (   0 nuclei)
Contact density                         ...  NO (   0 nuclei)

NMR properties:
Chemical shifts                         ...  NO (   0 nuclei)
Spin-rotation constants                 ...  NO (   0 nuclei)
Spin-spin couplings                     ...  NO (   0 nuclei,    0 pairs)

Choice of magnetic origin               ... GIAO
Position of magnetic origin             ...     0.000000     0.000000     0.000000

Properties with geometric perturbations:
SCF Hessian                             ...  NO
IR spectrum                             ...  NO
VCD spectrum                            ...  NO
X-ray spectroscopy properties:
SCF XES/XAS/RIXS spectra                ...  NO

SCF SOC stabilization energy            ...  NO
Diagonal Born-Oppenheimer correction    ...  NO

-------------
DIPOLE MOMENT
-------------

Method             : SCF
Type of density    : Electron Density
Multiplicity       :   1
Irrep              :   0
Energy             : -1966.0557873201278198 Eh
Basis              : AO
                                X                 Y                 Z
Electronic contribution:      1.184737255      -4.278795095      -8.985066381
Nuclear contribution   :     -1.184691283       4.318875275       8.872826531
                        -----------------------------------------
Total Dipole Moment    :      0.000045971       0.040080180      -0.112239850
                        -----------------------------------------
Magnitude (a.u.)       :      0.119181403
Magnitude (Debye)      :      0.302935052



--------------------
Rotational spectrum 
--------------------
 
Rotational constants in cm-1:             0.001194             0.000386             0.000325 
Rotational constants in MHz :            35.781092            11.564673             9.754043 

Dipole components along the rotational axes: 
x,y,z [a.u.] :     0.007094     0.105830     0.054350 
x,y,z [Debye]:     0.018032     0.268998     0.138147 

 

Dipole moment calculation done in   1.3 sec 

Maximum memory used throughout the entire PROP-calculation: 300.2 MB

--------------------------------
SUGGESTED CITATIONS FOR THIS RUN
--------------------------------

Below you find a list of papers that are relevant to this ORCA run
We neither can nor want to force you to cite these papers, but we appreciate if you do
You receive ORCA, which is the product of decades of hard work by many enthusiastic individuals, for free
The only thing we kindly ask in return is that you cite our papers,
We deeply appreciate it, if you show your appreciation for ORCA by not just citing the generic ORCA reference.

Please note that relegating all ORCA citations to the supporting information does *not* help us.
SI sections are not indexed - citations you put there will not count into any citation statistics
But we need these citations in order to attract the funding resources that allow us to do what we are doing

Therefore, if you are a happy ORCA user, please consider citing a few of the papers listed below in the main body of your paper

In addition to the list printed below, the program has created the file i-PP_sp.bibtex that contains the list in bibtex format
You can import this file easily into all common literature databanks and citation aid programs


List of essential papers. We consider these as the minimum necessary citations

  1. Neese, F.
     Software update: the ORCA program system, version 6.0
     WIRES Comput. Molec. Sci. 2025 15(1), e70019
     doi.org/10.1002/wcms.7019

List of papers to cite with high priority. The work reported in these papers was absolutely
necessary for this run to complete.
Our perspective: the developers of density functionals and basis sets usually get cited in chemistry papers
Good! But without the algorithms to do something with them, the functionals or basis sets would not do anything.
Hence, in our opinion, the algorithm design and method developments papers are equally worthy of getting cited

  1. Neese, F.
     An improvement of the resolution of the identity approximation for the formation of the Coulomb matrix
     J. Comp. Chem. 2003 24(14), 1740-1747
     doi.org/10.1002/jcc.10318
  2. Neese, F.; Wennmohs, F.; Hansen, A.; Becker, U.
     Efficient, approximate and parallel Hartree-Fock and hybrid DFT calculations. A 'chain-of-spheres' algorithm for the Hartree-Fock exchange
     Chem. Phys. 2009 356(1-3), 98-109
     doi.org/10.1016/j.chemphys.2008.10.036
  3. Grimme, S.; Antony, J.; Ehrlich, S.; Krieg, H.
     A consistent and accurate ab initio parametrization of density functional dispersion correction (DFT-D) for the 94 elements H-Pu
     J. Chem. Phys. 2010 132 , 154104
     doi.org/10.1063/1.3382344
  4. Grimme, S.; Ehrlich, S.; Goerigk, L.
     Effect of the damping function in dispersion corrected density functional theory
     J. Comput. Chem. 2011 32(7), 1456-1465
     doi.org/10.1002/jcc.21759
  5. Helmich-Paris, B.; de Souza, B.; Neese, F.; Izsák, R.
     An improved chain of spheres for exchange algorithm
     J. Chem. Phys. 2021 155(10), 104109
     doi.org/10.1063/5.0058766
  6. Neese, F.
     The SHARK Integral Generation and Digestion System
     J. Comp. Chem. 2022 44(3), 381
     doi.org/10.1002/jcc.26942

List of suggested additional citations. These are papers that are important in the 'surrounding' of 
of this run, or papers that preceded the highly important papers. If you like your results we are grateful for a citation.

  1. Izsak, R.; Neese, F.
     An overlap fitted chain of spheres exchange method
     J. Chem. Phys. 2011 135 , 144105
     doi.org/10.1063/1.3646921
  2. Izsak, R.; Hansen, A.; Neese, F.
     The resolution of identity and chain of spheres approximations for the LPNO-CCSD singles Fock term
     Molec. Phys. 2012 110 , 2413-2417
     doi.org/10.1080/00268976.2012.687466
  3. Neese, F.
     The ORCA program system
     WIRES Comput. Molec. Sci. 2012 2(1), 73-78
     doi.org/10.1002/wcms.81
  4. Izsak, R.; Neese, F.; Klopper, W.
     Robust fitting techniques in the chain of spheres approximation to the Fock exchange: The role of the complementary space
     J. Chem. Phys. 2013 139 , 
     doi.org/10.1063/1.4819264
  5. Neese, F.
     Software update: the ORCA program system, version 4.0
     WIRES Comput. Molec. Sci. 2018 8(1), 1-6
     doi.org/10.1002/wcms.1327
  6. Neese, F.; Wennmohs, F.; Becker, U.; Riplinger, C.
     The ORCA quantum chemistry program package
     J. Chem. Phys. 2020 152(22), 224108
     doi.org/10.1063/5.0004608
  7. Neese, F.
     Software update: The ORCA program system—Version 5.0
     WIRES Comput. Molec. Sci. 2022 12(1), e1606
     doi.org/10.1002/wcms.1606

List of optional additional citations

  1. Neese, F.
     Approximate second-order SCF convergence for spin unrestricted wavefunctions
     Chem. Phys. Lett. 2000 325(1-3), 93-98
     doi.org/10.1016/s0009-2614(00)00662-x

Timings for individual modules:

Sum of individual times          ...    13908.266 sec (= 231.804 min)
Startup calculation              ...     4623.229 sec (=  77.054 min)  33.2 %
SCF iterations                   ...     9259.734 sec (= 154.329 min)  66.6 %
Property calculations            ...       25.302 sec (=   0.422 min)   0.2 %
                             ****ORCA TERMINATED NORMALLY****
TOTAL RUN TIME: 0 days 3 hours 51 minutes 55 seconds 890 msec
