nohup: ignoring input

                                 *****************
                                 * O   R   C   A *
                                 *****************

                                            #,                                       
                                            ###                                      
                                            ####                                     
                                            #####                                    
                                            ######                                   
                                           ########,                                 
                                     ,,################,,,,,                         
                               ,,#################################,,                 
                          ,,##########################################,,             
                       ,#########################################, ''#####,          
                    ,#############################################,,   '####,        
                  ,##################################################,,,,####,       
                ,###########''''           ''''###############################       
              ,#####''   ,,,,##########,,,,          '''####'''          '####       
            ,##' ,,,,###########################,,,                        '##       
           ' ,,###''''                  '''############,,,                           
         ,,##''                                '''############,,,,        ,,,,,,###''
      ,#''                                            '''#######################'''  
     '                                                          ''''####''''         
             ,#######,   #######,   ,#######,      ##                                
            ,#'     '#,  ##    ##  ,#'     '#,    #''#        ,####,    ,#,          
            ##       ##  ##   ,#'  ##            #'  '#       #'       ,# #          
            ##       ##  #######   ##           ,######,      #####,      #          
            '#,     ,#'  ##    ##  '#,     ,#' ,#      #,     #,   #      #          
             '#######'   ##     ##  '#######'  #'      '#     '####' #    #          



                #########################################################
                #                        -***-                          #
                #          Department of theory and spectroscopy        #
                #                                                       #
                #                      Frank Neese                      #
                #                                                       #
                #     Directorship, Architecture, Infrastructure        #
                #                    SHARK, DRIVERS                     #
                #        Core code/Algorithms in most modules           #
                #                                                       #
                #        Max Planck Institute fuer Kohlenforschung      #
                #                Kaiser Wilhelm Platz 1                 #
                #                 D-45470 Muelheim/Ruhr                 #
                #                      Germany                          #
                #                                                       #
                #                  All rights reserved                  #
                #                        -***-                          #
                #########################################################


                         Program Version 6.1.0  -  RELEASE   -
                                (GIT: $679e74b$)
                          ($2025-06-10 18:02:51 +0200$)


 With contributions from (in alphabetic order):
[Max-Planck-Institut fuer Kohlenforschung]                               
  Daniel Aravena         : Magnetic Suceptibility                        
  Michael Atanasov       : Ab Initio Ligand Field Theory (pilot matlab implementation)
  Alexander A. Auer      : GIAO ZORA, VPT2 properties, NMR spectrum      
  Ute Becker             : All parallelization in ORCA, NUMFREQ, NUMCALC 
  Giovanni Bistoni       : ED, misc. LED, open-shell LED, HFLD           
  Dmytro Bykov           : pre 5.0 version of the SCF Hessian            
  Marcos Casanova-Páez   : Triplet and SCS-CIS(D). UHF-(DLPNO)-IP/EA/STEOM-CCSD. UHF-CVS-IP/STEOM-CCSD   
  Vijay G. Chilkuri      : MRCI spin determinant printing, contributions to CSF-ICE 
  Pauline Colinet        : FMM embedding                                 
  Dipayan Datta          : RHF DLPNO-CCSD density                        
  Achintya Kumar Dutta   : EOM-CC, STEOM-CC                              
  Nicolas Foglia         : Exact transition moments, OPA infrastructure, MCD improvements    
  Dmitry Ganyushin       : Spin-Orbit,Spin-Spin,Magnetic field MRCI      
  Miquel Garcia-Rates    : C-PCM and meta-GGA Hessian, CCSD/C-PCM, Gaussian charge scheme 
  Tiago L. C. Gouveia    : GS-ROHF, GS-ROCIS                             
  Yang Guo               : DLPNO-NEVPT2, F12-NEVPT2, CIM, IAO-localization        
  Andreas Hansen         : Spin unrestricted coupled pair/coupled cluster methods 
  Ingolf Harden          : AUTO-CI MPn and infrastructure                
  Benjamin Helmich-Paris : MC-RPA, TRAH-(SCF,CASSCF), AVAS, COSX integrals, SCF dyn. polar., MC-PDFT, srDFT 
  Lee Huntington         : MR-EOM, pCC                                   
  Robert Izsak           : Overlap fitted RIJCOSX, COSX-SCS-MP3, EOM     
  Riya Kayal             : Wick's Theorem for AUTO-CI, AUTO-CI UHF-CCSDT 
  Emily Kempfer          : AUTO-CI RHF CISDT and CCSDT, approximate NEVPT4
  Christian Kollmar      : KDIIS, OOCD, Brueckner-CCSD(T), CCSD density, CASPT2, CASPT2-K, improved NEVPT2 
  Axel Koslowski         : Symmetry handling                             
  Simone Kossmann        : meta-GGA functionals, TD-DFT gradient, OOMP2, (MP2 Hessian; deprecated post 5.0) 
  Lucas Lang             : DCDCAS, Hyperfine gauge corrections, ICE-SOC+SSC
  Marvin Lechner         : AUTO-CI (C++ implementation), FIC-MRCC        
  Spencer Leger          : CASSCF response                               
  Dagmar Lenk            : GEPOL surface, SMD, ORCA-2-JSON               
  Dimitrios Liakos       : Extrapolation schemes; Compound Job, Property file
  Dimitrios Manganas     : Further ROCIS development; embedding schemes. LFT, Crystal Embedding 
  Dimitrios Pantazis     : SARC Basis sets                               
  Anastasios Papadopoulos: AUTO-CI, single reference methods and gradients 
  Taras Petrenko         : pre 6.0 DFT Hessian and TD-DFT gradient,  ECA, NRVS 
  Petra Pikulova         : Analytic Raman intensities                    
  Peter Pinski           : DLPNO-MP2, DLPNO-MP2 Gradient                 
  Shashank Vittal Rao    : ES-AILFT, MagRelax                            
  Christoph Reimann      : Effective Core Potentials                     
  Marius Retegan         : Local ZFS, SOC                                
  Christoph Riplinger    : Optimizer, TS searches, QM/MM, DLPNO-CCSD(T), (RO)-DLPNO pert. Triples 
  Michael Roemelt        : Original ROCIS implementation, recursive CI coupling coefficients
  Masaaki Saitow         : Open-shell DLPNO-CCSD energy and density      
  Barbara Sandhoefer     : DKH picture change effects                    
  Yorick L. A. Schmerwitz: GMF and freeze-and-release deltaSCF, NEB S-IDPP initial path                    
  Kantharuban Sivalingam : CASSCF convergence/infrastructure, NEVPT2, NEVPT3, NEVPT4(SD), FIC-MRCI and CEPA variants
  Bernardo de Souza      : ESD, SOC TD-DFT                               
  Georgi L. Stoychev     : AutoAux, RI-MP2 NMR, DLPNO-MP2 response, X2C  
  Van Anh Tran           : RI-MP2 g-tensors                              
  Willem Van den Heuvel  : Paramagnetic NMR                              
  Zikuan Wang            : NOTCH, Electric field optimization            
  Frank Wennmohs         : Technical directorship and infrastructure     
  Hang Xu                : AUTO-CI-Response properties                   
                                                                         
[FACCTs GmbH]                                                            
  Markus Bursch, Nicolas Foglia, Miquel Garcia-Rates, Ingolf Harden, Hagen Neugebauer, Anastasios Papadopoulos, 
  Christoph Riplinger, Bernardo de Souza, Georgi L. Stoychev                                                    
                                                                 
  APM, various basis sets, CI-OPT, improved COSX, DLPNO-Multilevel,           
  DOCKER, DRACO, updates on ESD, Fragmentator, GOAT, IRC, LR-CPCM, L-BFGS, MBIS, meta-GGA TD-DFT gradient, ML-optimized integration grids, 
  MM, NACMEs, nearIR, NEB, NEB-TS, NL-DFT gradient (VV10), 2- and 3-layer-ONIOM, interface openCOSMO-RS, QMMM,   
  Crystal-QMMM, RESP, rigid body optimization, SF, symmetry and pop. for TD-DFT, various functionals, SOLVATOR                                   
                                                                         
[Other institutions]                                                     
  V. Asgeirsson          : NEB                                           
  Christoph Bannwarth    : sTDA-DFT, sTD-DFT, PBEh-3c, B97-3c, D3        
  Giovanni Bistoni       : ETS/NOCV, ADLD/ADEX, COVALED                  
  Martin Brehm           : Molecular dynamics                            
  Ronald Cardenas        : ETS/NOCV                                      
  Martina Colucci        : COVALED                                       
  Sebastian Ehlert       : rSCAN, r2SCAN, r2SCAN-3c, D4, dhf basis sets  
  Marvin Friede          : D4 for Fr, Ra, Ac-Lr                          
  Lars Goerigk           : TD-DFT with DH, B97 family of functionals     
  Stefan Grimme          : VdW corrections, initial TS optimization, DFT functionals, gCP, sTDA/sTD-DF 
  Waldemar Hujo          : DFT-NL                                        
  H. Jonsson             : NEB                                           
  Holger Kruse           : gCP                                           
  Marcel Mueller         : wB97X-3c, vDZP basis set                      
  Hagen Neugebauer       : wr2SCAN, Native XTB                           
  Gianluca Regni         : ADLD/ADEX                                     
  Tobias Risthaus        : pre 6.0 range-separated hybrid DFT and stability analysis
  Lukas Wittmann         : regularized MP2, r2SCAN double-hybrids, wr2SCAN        
                                                                         
We gratefully acknowledge several colleagues who have allowed us to      
interface, adapt or use parts of their codes:                            
  Ed Valeev, F. Pavosevic, A. Kumar             : LibInt (2-el integral package), F12 methods 
  Garnet Chan, S. Sharma, J. Yang, R. Olivares  : DMRG                   
  Ulf Ekstrom                                   : XCFun DFT Library      
  Mihaly Kallay                                 : mrcc  (arbitrary order and MRCC methods)
  Frank Weinhold                                : gennbo (NPA and NBO analysis)           
  Simon Mueller                                 : openCOSMO-RS                            
  Christopher J. Cramer and Donald G. Truhlar   : smd solvation model                     
  S Lehtola, MJT Oliveira, MAL Marques          : LibXC Library                           
  Liviu Ungur et al                             : ANISO software                          


 Your calculation uses the libint2 library for the computation of 2-el integrals
 For citations please refer to: http://libint.valeyev.net

 Your ORCA version has been built with support for libXC version: 7.0.0
 For citations please refer to: https://libxc.gitlab.io

 This ORCA versions uses:
   CBLAS   interface :  Fast vector & matrix operations
   LAPACKE interface :  Fast linear algebra routines
   SCALAPACK package :  Parallel linear algebra routines
   Shared memory     :  Shared parallel matrices
   BLAS/LAPACK       :  OpenBLAS 0.3.29  USE64BITINT DYNAMIC_ARCH NO_AFFINITY SkylakeX SINGLE_THREADED
        Core in use  :  SkylakeX
   Copyright (c) 2011-2014, The OpenBLAS Project


  ***********************************
  * Starting time: Wed Sep 17 17:13:23 2025
  * Host name:     computational-ch-1-genericvnf-vm-0
  * Process ID:    263721
  * Working dir.:  /home/ubuntu/i-PP_clusters/iPP_APP/opt
  ***********************************

Your calculation utilizes the atom-pairwise dispersion correction
with the Becke-Johnson damping scheme (D3BJ)


Warning: RI is on but no J-basis has been assigned. Assigning Def2/J (nothing to worry about!)
================================================================================

----- Orbital basis set information -----
Your calculation utilizes the basis: def2-TZVP
   F. Weigend and R. Ahlrichs, Phys. Chem. Chem. Phys. 7, 3297 (2005).

----- AuxJ basis set information -----
Your calculation utilizes the auxiliary basis: def2/J
   H-Rn: F. Weigend, Phys. Chem. Chem. Phys. 8, 1057 (2006).
   Fr-Lr: K. Eichkorn, F. Weigend, O. Treutler, R. Ahlrichs; Theor. Chem. Acc. 97, 119 (1997).

================================================================================
                                        WARNINGS
                       Please study these warnings very carefully!
================================================================================


WARNING: Geometry Optimization
  ===> : Switching off AutoStart
         For restart on a previous wavefunction, please use MOREAD

================================================================================
                                       INPUT FILE
================================================================================
NAME = i-PP_APP_clusters.inp
|  1> ! B3LYP D3BJ def2-TZVP TightSCF Opt
|  2> 
|  3> %pal
|  4>  nprocs 24
|  5> end
|  6> 
|  7> * xyz 0 1
|  8> C    -12.7147183989    4.7233080249   39.5789929289
|  9> C    -11.5489441998    4.9248546426   38.5776293241
| 10> H      6.8604976954   13.3615546018   43.5794878553
| 11> H      5.9447253398   13.3665704705   45.0897131611
| 12> C    -12.2769273815    5.1791600267   40.9924102432
| 13> C    -11.9633340594    5.5422782933   37.2179954176
| 14> H    -10.8105259880    5.6053615611   39.0206530438
| 15> H    -11.0234481764    3.9758167320   38.4099222642
| 16> C    -10.7038805659    5.7685031033   36.3419945822
| 17> H    -13.4100456066    2.9077122538   38.5776408929
| 18> C    -12.9789422478    4.6663619069   36.4782810972
| 19> C    -10.6503903095    7.1397600451   35.6206558206
| 20> H     -9.8089696964    5.7049089783   36.9757187445
| 21> H    -10.6059427268    4.9605183145   35.6049688245
| 22> C     -9.3204252242    7.2583038660   34.8321921090
| 23> H    -13.2027737780    5.0589802516   35.4827808731
| 24> C    -11.8464126997    7.3400709067   34.6846342926
| 25> C     -8.6071115579    8.6285513888   34.9553013523
| 26> H     -8.6173243631    6.4987579420   35.1997519691
| 27> H     -9.4873554181    7.0229708886   33.7726881230
| 28> C     -7.2610950013    8.5827114325   34.1865648587
| 29> H    -11.7640085305    8.2693449727   34.1149892228
| 30> C     -9.4760477441    9.7780993439   34.4369088159
| 31> C     -6.0520480111    9.1679122751   34.9595289790
| 32> H     -7.0197547878    7.5388694804   33.9459988796
| 33> H     -7.3592996685    9.0930765572   33.2193157950
| 34> C     -4.7649099273    8.9019125537   34.1380052386
| 35> H     -8.9310819577   10.7263376032   34.4355215129
| 36> C     -6.2351302419   10.6501703668   35.2851491826
| 37> C     -3.4457045040    9.2840431950   34.8575731538
| 38> H     -4.7465758601    7.8304108641   33.8987556397
| 39> H     -4.8332410640    9.4188263978   33.1716524882
| 40> C     -2.4146408592    8.1386668311   34.6932887144
| 41> H     -5.3931394459   11.0379006400   35.8657957596
| 42> C     -2.9132685108   10.6160888848   34.3213268267
| 43> C     -1.0754024564    8.3555445137   35.4441332668
| 44> H     -2.8912069753    7.2231280990   35.0686034430
| 45> H     -2.2263218755    7.9613529122   33.6261387483
| 46> C     -0.6567796656    7.0400292227   36.1499282091
| 47> H     -2.0718860844   10.9758548064   34.9211198637
| 48> C      0.0047447874    8.8538877295   34.4788193882
| 49> C      0.6332393337    7.1455963416   37.0032848926
| 50> H     -1.4929113292    6.7423342929   36.7969444623
| 51> H     -0.5534280397    6.2393398208   35.4059536209
| 52> C      0.4224466154    6.4336513302   38.3635176534
| 53> H      0.9120751666    9.1458675339   35.0159578925
| 54> C      1.8290401636    6.5661260807   36.2408502475
| 55> C      1.6132195522    6.5711682206   39.3478904085
| 56> H     -0.4744150366    6.8709625112   38.8214366285
| 57> H      0.1837716732    5.3750835285   38.1945892959
| 58> C      1.0893094532    6.9353707133   40.7592043341
| 59> H      2.7679651524    6.7623486621   36.7670598125
| 60> C      2.4430986185    5.2836800338   39.3666820552
| 61> C      2.2032796253    7.2396899541   41.7949270282
| 62> H      0.4474375889    7.8192279143   40.6485121345
| 63> H      0.4357627062    6.1350466685   41.1284147092
| 64> C      1.8477933603    8.5310956208   42.5719861245
| 65> H      3.3632943593    5.4150162275   39.9436623152
| 66> C      2.4047329167    6.0459760962   42.7318999748
| 67> C      2.9320336687    9.0133864828   43.5691931030
| 68> H      1.6820659309    9.3158083611   41.8236101116
| 69> H      0.8861552390    8.3997962578   43.0858333661
| 70> C      3.1241055733   10.5458189076   43.4285737883
| 71> H      3.2786266595    6.1897127895   43.3743403671
| 72> C      2.5558742557    8.6121302963   44.9983070164
| 73> C      4.2468660609   11.1413257983   44.3141892698
| 74> H      3.3567979115   10.7462836199   42.3733703947
| 75> H      2.1739088230   11.0560261791   43.6312456645
| 76> C      5.0629574153   12.1694980793   43.5004480345
| 77> H      3.3764873347    8.8127719548   45.6936954616
| 78> C      3.6611208434   11.7865419293   45.5759830245
| 79> C      6.2593909729   12.7395017284   44.2505806351
| 80> H      5.4391882212   11.6840517559   42.5916111901
| 81> H      4.4155181256   12.9932832614   43.1745363210
| 82> H      6.9026509215   11.9411406705   44.6334463369
| 83> H    -13.1944671141    3.0517372644   42.4285717072
| 84> C    -13.1766196301    3.2625852400   39.5847707258
| 85> C    -13.4225665141    5.1862166644   42.0397766026
| 86> H    -11.4408470803    4.5581763790   41.3401496524
| 87> H    -11.8736138878    6.1955989013   40.8947671160
| 88> C    -13.4116673648    6.5358148412   42.7967735194
| 89> H    -13.7704189973    5.3910587761   45.2995220758
| 90> C    -13.2925855618    3.9895997478   42.9829776347
| 91> C    -14.5827416090    6.7550916359   43.7894632590
| 92> H    -12.4511626168    6.6547105998   43.3125503505
| 93> H    -13.4465162199    7.3134308125   42.0241389935
| 94> C    -15.0847070906    8.2246773392   43.7254211458
| 95> H    -17.0789911062    6.8039973314   45.2369371221
| 96> C    -14.1222699380    6.4220704056   45.2167503677
| 97> C    -16.6236512454    8.3903530568   43.8167920488
| 98> H    -14.5988138913    8.8295854652   44.5017616566
| 99> H    -14.7836032901    8.6696344157   42.7689184771
|100> C    -17.0031963048    9.8776985391   43.5944725302
|101> H    -19.4462926580    8.3966250701   43.2708459489
|102> C    -17.1761994960    7.8904723634   45.1537749122
|103> C    -18.2181270547   10.0904648925   42.6648557289
|104> H    -17.1818093843   10.3716607039   44.5585465207
|105> H    -16.1541985528   10.4078374421   43.1428868499
|106> C    -18.4186424240   11.5873183975   42.4093924412
|107> H    -18.6416598472   12.1225908225   43.3386071868
|108> C    -19.5110627912    9.4870412442   43.2105086947
|109> H    -17.5199920806   12.0317037735   41.9684687716
|110> H    -19.2471721641   11.7562415948   41.7131947658
|111> H    -18.0018526366    9.6159381943   41.6989390954
|112> H    -19.7415925117    9.8765018073   44.2076581965
|113> H    -20.3563501636    9.7218033831   42.5542666128
|114> H    -17.0654524124    7.7875028617   43.0132073658
|115> H    -16.6489596626    8.3512749062   45.9960187832
|116> H    -18.2389528979    8.1213637400   45.2655204892
|117> H    -15.4072593603    6.0876483462   43.5128760619
|118> H    -13.3000073032    7.0764709084   45.5258493731
|119> H    -14.9286575377    6.5438552433   45.9433215373
|120> H    -14.3864784764    5.1124252566   41.5208780296
|121> H    -12.4129812790    4.0880261093   43.6283467206
|122> H    -14.1790998307    3.8904841513   43.6164469745
|123> H    -13.5582096896    5.3559943671   39.2761273370
|124> H    -12.4017318894    2.6064299665   39.9959828618
|125> H    -14.0834432260    3.1364084620   40.1837653112
|126> H    -12.4310615182    6.5117505495   37.4314637294
|127> H    -12.6020685582    3.6455900645   36.3530926433
|128> H    -13.9288080112    4.6182833893   37.0191320711
|129> H    -10.6804826133    7.9168867639   36.3947897963
|130> H    -11.9254045338    6.5183345784   33.9647298630
|131> H    -12.7840831080    7.3965721262   35.2455253637
|132> H     -8.4084445419    8.7976831018   36.0210889154
|133> H     -9.8097665487    9.5887944663   33.4109550415
|134> H    -10.3599062943    9.9206878231   35.0657939857
|135> H     -5.9639928138    8.6207846787   35.9075818623
|136> H     -6.3272001606   11.2477228807   34.3723302524
|137> H     -7.1268345468   10.8174987149   35.8960856375
|138> H     -3.6406629999    9.3957794145   35.9315976918
|139> H     -2.5790828890   10.5179592367   33.2828448022
|140> H     -3.6787447435   11.3966922115   34.3479768498
|141> H     -1.2197256397    9.1127788135   36.2251465331
|142> H      0.2703773030    8.0801271328   33.7504357580
|143> H     -0.3262133623    9.7324296697   33.9188433137
|144> H      0.8358886315    8.2026566213   37.2161473691
|145> H      1.7273587770    5.4828910306   36.1142934995
|146> H      1.9266798279    7.0079677723   35.2456623415
|147> H      2.2585574840    7.3961898888   39.0198305010
|148> H      1.8786390644    4.4550673817   39.8078818796
|149> H      2.7397142657    4.9801897057   38.3587974444
|150> H      3.1458247404    7.4234818685   41.2641733450
|151> H      1.5300397021    5.8976267581   43.3738107137
|152> H      2.5674599840    5.1199480395   42.1732036255
|153> H      3.8905322868    8.5424070761   43.3163096212
|154> H      1.6698834212    9.1571462373   45.3415319696
|155> H      2.3316294244    7.5447375978   45.0725719189
|156> H      4.9293551144   10.3379400631   44.6178831921
|157> H      3.0813194097   12.6821451463   45.3271028800
|158> H      3.0008062594   11.1013704687   46.1137688783
|159> H      4.4516883745   12.0783398210   46.2741167318
|160> P     -9.4337619217    7.9389342846   45.8246159684
|161> O     -8.8897006789    6.4125547909   45.6518509224
|162> O    -10.6897842117    7.5928936459   46.7756871881
|163> P    -10.2698233595    9.3231833880   43.4800855937
|164> O    -10.3265773307   10.6279193359   44.2217237713
|165> O    -11.5400949040    9.0816631133   42.5433022334
|166> P     -8.8150444410    8.1438862805   41.3193946681
|167> O     -9.5616573381    8.5129153227   40.0736801903
|168> O     -9.2131532532    6.6836219090   41.8772841487
|169> P     -6.2505323660    7.4678672842   42.2708227193
|170> O     -6.2666844067    5.9543932371   42.1271476090
|171> O     -6.6558693015    7.9968205543   43.6378687879
|172> P     -4.3512560254    9.5418781034   42.1461677237
|173> O     -3.7126445365    9.4712971236   43.5396761471
|174> O     -5.5443028663   10.4776676637   42.0560362453
|175> P     -2.2836516826   11.0168345671   40.6523867241
|176> O     -0.9160385361   10.2620837170   41.1631531798
|177> O     -2.4010782686   11.8653864112   42.0518059844
|178> O    -10.2502428682    8.0350836777   44.4402015691
|179> O     -9.0204639208    9.1350168070   42.5356790053
|180> O     -7.2378896055    8.0562392322   41.1623648202
|181> O     -4.8515543294    8.0617003605   41.7839012222
|182> O     -3.2621493010    9.8000411328   41.0064878526
|183> N    -12.0944949217    9.8507392437   46.6261836756
|184> H    -11.6847021491   10.5107750065   45.9415322399
|185> H    -11.2844251624    8.3969464045   46.7752833072
|186> H    -13.0521256843    9.7268415761   46.2709308301
|187> H    -12.2310450658   10.4392167535   47.4576073539
|188> N    -11.4037523015   10.6853005922   40.5361675053
|189> H    -12.2100263344   10.7921404566   39.9082417512
|190> H    -11.6312004823    9.8019088037   41.8600674546
|191> H    -10.8976777382   11.5723571174   40.4207307950
|192> H    -10.8022399270   10.0150743297   40.0121237993
|193> N     -8.1467289739    5.0796882048   40.1848513290
|194> H     -7.2372200533    5.2341964432   40.6817728913
|195> H     -9.0604584663    6.0458239365   41.1173661304
|196> H     -8.1238222456    4.0720552871   39.9894018407
|197> H     -7.9522534444    5.4887226228   39.2593773545
|198> N     -7.8838233717    5.0886627747   43.7335303001
|199> H     -7.9562014803    4.1231013918   44.0246351306
|200> H     -7.8849895095    5.7248855974   44.5504739837
|201> H     -8.6669575536    5.4072756400   43.1522815151
|202> H     -7.0233058142    5.2744461904   43.1636067974
|203> N     -5.9841396365   10.2163931476   44.4460864955
|204> H     -4.9610478275   10.0357836768   44.4983802664
|205> H     -6.0734972305   10.6487916165   43.4927070917
|206> H     -6.3671813278   10.7811385965   45.1850011911
|207> H     -6.3968829568    9.2646689073   44.3119513609
|208> N     -1.3594988808   10.3079543633   43.5470158366
|209> H     -0.9745145522    9.9972572405   42.6210284354
|210> H     -1.7579941767   11.1996710774   43.1544355774
|211> H     -0.6734100395   10.4648247038   44.2603733048
|212> H     -2.2177185327    9.7594383158   43.7428563131
|213> **                         ****END OF INPUT****
================================================================================

                       *****************************
                       * Geometry Optimization Run *
                       *****************************

Geometry optimization settings:
Update method            Update   .... BFGS
Choice of coordinates    CoordSys .... (2022) Redundant Internals
Initial Hessian          InHess   .... Almloef's Model
Max. no of cycles        MaxIter  .... 615

Convergence Tolerances:
Energy Change            TolE     ....  5.0000e-06 Eh
Max. Gradient            TolMAXG  ....  3.0000e-04 Eh/bohr
RMS Gradient             TolRMSG  ....  1.0000e-04 Eh/bohr
Max. Displacement        TolMAXD  ....  4.0000e-03 bohr
RMS Displacement         TolRMSD  ....  2.0000e-03 bohr
Strict Convergence                .... False

------------------------------------------------------------------------------
                        ORCA OPTIMIZATION COORDINATE SETUP
------------------------------------------------------------------------------

The optimization will be done in redundant internal coordinates (2022)
Making redundant internal coordinates   ...  (2022 redundants) done
Evaluating the initial hessian          ...  (Almloef) done
Evaluating the coordinates              ...  done
Calculating the B-matrix                .... done
Calculating the G-matrix                .... done
The number of degrees of freedom        .... 1019

    -----------------------------------------------------------------
                    Redundant Internal Coordinates


    -----------------------------------------------------------------
         Definition                    Initial Value    Approx d2E/dq
    -----------------------------------------------------------------
      1. B(C   1,C   0)                  1.5500         0.347161   
      2. B(C   4,C   0)                  1.5483         0.349295   
      3. B(C   5,C   1)                  1.5497         0.347508   
      4. B(H   6,C   1)                  1.0976         0.350247   
      5. B(H   7,C   1)                  1.0977         0.350057   
      6. B(C   8,C   5)                  1.5507         0.346176   
      7. B(C  10,C   5)                  1.5316         0.371355   
      8. B(C  11,C   8)                  1.5503         0.346685   
      9. B(H  12,C   8)                  1.0984         0.349138   
     10. B(H  13,C   8)                  1.0980         0.349651   
     11. B(C  14,C  11)                  1.5507         0.346275   
     12. B(H  15,C  10)                  1.0933         0.355781   
     13. B(C  16,C  11)                  1.5319         0.370971   
     14. B(C  17,C  14)                  1.5497         0.347502   
     15. B(H  18,C  14)                  1.0983         0.349229   
     16. B(H  19,C  14)                  1.0981         0.349559   
     17. B(C  20,C  17)                  1.5507         0.346159   
     18. B(H  21,C  16)                  1.0931         0.356041   
     19. B(C  22,C  17)                  1.5314         0.371634   
     20. B(C  23,C  20)                  1.5498         0.347429   
     21. B(H  24,C  20)                  1.0981         0.349601   
     22. B(H  25,C  20)                  1.0980         0.349622   
     23. B(C  26,C  23)                  1.5500         0.347160   
     24. B(H  27,C  22)                  1.0937         0.355259   
     25. B(C  28,C  23)                  1.5286         0.375493   
     26. B(C  29,C  26)                  1.5505         0.346452   
     27. B(H  30,C  26)                  1.0980         0.349619   
     28. B(H  31,C  26)                  1.0980         0.349611   
     29. B(C  32,C  29)                  1.5498         0.347330   
     30. B(H  33,C  28)                  1.0938         0.355087   
     31. B(C  34,C  29)                  1.5315         0.371566   
     32. B(C  35,C  32)                  1.5506         0.346346   
     33. B(H  36,C  32)                  1.0983         0.349330   
     34. B(H  37,C  32)                  1.0980         0.349607   
     35. B(C  38,C  35)                  1.5505         0.346506   
     36. B(H  39,C  34)                  1.0941         0.354685   
     37. B(C  40,C  35)                  1.5320         0.370897   
     38. B(C  41,C  38)                  1.5503         0.346696   
     39. B(H  42,C  38)                  1.0983         0.349224   
     40. B(H  43,C  38)                  1.0979         0.349859   
     41. B(C  44,C  41)                  1.5497         0.347510   
     42. B(H  45,H   2)                 11.2468         0.010000   
     43. B(H  45,C  40)                  1.0941         0.354739   
     44. B(C  46,C  41)                  1.5320         0.370836   
     45. B(C  47,C  44)                  1.5511         0.345740   
     46. B(H  48,C  44)                  1.0979         0.349854   
     47. B(H  49,C  44)                  1.0982         0.349400   
     48. B(C  50,C  47)                  1.5488         0.348583   
     49. B(H  51,C  46)                  1.0941         0.354761   
     50. B(C  52,C  47)                  1.5319         0.370994   
     51. B(C  53,C  50)                  1.5512         0.345568   
     52. B(H  54,C  50)                  1.0979         0.349758   
     53. B(H  55,C  50)                  1.0973         0.350635   
     54. B(C  56,C  53)                  1.5485         0.349001   
     55. B(H  57,C  52)                  1.0940         0.354800   
     56. B(C  58,C  53)                  1.5308         0.372431   
     57. B(C  59,C  56)                  1.5500         0.347069   
     58. B(H  60,C  56)                  1.0970         0.351018   
     59. B(H  61,C  56)                  1.0982         0.349424   
     60. B(C  62,C  59)                  1.5508         0.346079   
     61. B(H  63,C  58)                  1.0941         0.354702   
     62. B(C  64,C  59)                  1.5313         0.371800   
     63. B(C  65,C  62)                  1.5490         0.348334   
     64. B(H  66,C  62)                  1.0990         0.348398   
     65. B(H  67,C  62)                  1.0974         0.350458   
     66. B(C  68,C  65)                  1.5444         0.354264   
     67. B(H  69,C  64)                  1.0942         0.354614   
     68. B(C  70,C  65)                  1.5335         0.368845   
     69. B(C  71,C  68)                  1.5228         0.383525   
     70. B(C  71,H   3)                  1.0938         0.355123   
     71. B(C  71,H   2)                  1.0948         0.353772   
     72. B(H  72,C  68)                  1.0969         0.351085   
     73. B(H  73,C  68)                  1.0973         0.350600   
     74. B(H  74,C  71)                  1.0944         0.354303   
     75. B(C  76,H   9)                  1.0930         0.356103   
     76. B(C  76,C   0)                  1.5320         0.370807   
     77. B(C  77,C   4)                  1.5523         0.344240   
     78. B(H  78,C   4)                  1.0980         0.349689   
     79. B(H  79,C   4)                  1.0979         0.349823   
     80. B(C  80,C  77)                  1.5474         0.350388   
     81. B(C  82,C  77)                  1.5292         0.374691   
     82. B(C  82,H  75)                  1.0939         0.355000   
     83. B(C  83,C  80)                  1.5508         0.346113   
     84. B(H  84,C  80)                  1.0967         0.351356   
     85. B(H  85,C  80)                  1.0968         0.351278   
     86. B(C  86,C  83)                  1.5543         0.341710   
     87. B(H  87,H  45)                 20.8238         0.010000   
     88. B(H  87,H   2)                 24.8767         0.010000   
     89. B(C  88,C  83)                  1.5363         0.365086   
     90. B(C  88,H  81)                  1.0925         0.356761   
     91. B(C  89,C  86)                  1.5505         0.346435   
     92. B(H  90,C  86)                  1.0976         0.350194   
     93. B(H  91,C  86)                  1.0971         0.350876   
     94. B(C  92,C  89)                  1.5510         0.345807   
     95. B(C  94,C  89)                  1.5306         0.372762   
     96. B(C  94,H  87)                  1.0940         0.354873   
     97. B(C  95,C  92)                  1.5445         0.354182   
     98. B(H  96,C  92)                  1.0979         0.349826   
     99. B(H  97,C  92)                  1.0981         0.349572   
    100. B(C  98,C  95)                  1.5317         0.371279   
    101. B(H  99,C  98)                  1.0953         0.353150   
    102. B(C 100,C  95)                  1.5276         0.376893   
    103. B(C 100,H  93)                  1.0940         0.354843   
    104. B(H 101,C  98)                  1.0952         0.353285   
    105. B(H 102,C  98)                  1.0953         0.353153   
    106. B(H 103,C  95)                  1.0977         0.350057   
    107. B(H 104,C 100)                  1.0950         0.353483   
    108. B(H 105,C 100)                  1.0956         0.352804   
    109. B(H 106,C  89)                  1.0974         0.350397   
    110. B(H 107,C  94)                  1.0953         0.353149   
    111. B(H 108,C  94)                  1.0933         0.355798   
    112. B(H 109,C  83)                  1.0963         0.351899   
    113. B(H 110,C  88)                  1.0954         0.353029   
    114. B(H 111,C  88)                  1.0922         0.357143   
    115. B(H 112,C  77)                  1.0972         0.350712   
    116. B(H 113,C  82)                  1.0954         0.353032   
    117. B(H 114,C  82)                  1.0941         0.354741   
    118. B(H 115,C   0)                  1.0970         0.350906   
    119. B(H 116,C  76)                  1.0955         0.352917   
    120. B(H 117,C  76)                  1.0941         0.354723   
    121. B(H 118,C   5)                  1.0974         0.350485   
    122. B(H 119,C  10)                  1.0953         0.353157   
    123. B(H 120,C  10)                  1.0941         0.354704   
    124. B(H 121,C  11)                  1.0973         0.350543   
    125. B(H 122,C  16)                  1.0953         0.353115   
    126. B(H 123,C  16)                  1.0941         0.354739   
    127. B(H 124,C  17)                  1.0973         0.350624   
    128. B(H 125,C  22)                  1.0953         0.353095   
    129. B(H 126,C  22)                  1.0941         0.354729   
    130. B(H 127,C  23)                  1.0981         0.349494   
    131. B(H 128,C  28)                  1.0949         0.353689   
    132. B(H 129,C  28)                  1.0938         0.355120   
    133. B(H 130,C  29)                  1.0973         0.350598   
    134. B(H 131,C  34)                  1.0953         0.353114   
    135. B(H 132,C  34)                  1.0936         0.355342   
    136. B(H 133,C  35)                  1.0974         0.350485   
    137. B(H 134,C  40)                  1.0954         0.353082   
    138. B(H 135,C  40)                  1.0931         0.355978   
    139. B(H 136,C  41)                  1.0972         0.350756   
    140. B(H 137,C  46)                  1.0953         0.353114   
    141. B(H 138,C  46)                  1.0932         0.355850   
    142. B(H 139,C  47)                  1.0976         0.350174   
    143. B(H 140,C  52)                  1.0954         0.353045   
    144. B(H 141,C  52)                  1.0936         0.355394   
    145. B(H 142,C  53)                  1.0972         0.350687   
    146. B(H 143,C  58)                  1.0951         0.353475   
    147. B(H 144,C  58)                  1.0937         0.355256   
    148. B(H 145,C  59)                  1.0975         0.350323   
    149. B(H 146,C  64)                  1.0954         0.353072   
    150. B(H 147,C  64)                  1.0932         0.355867   
    151. B(H 148,C  65)                  1.0970         0.350934   
    152. B(H 149,C  70)                  1.0955         0.352840   
    153. B(H 150,C  70)                  1.0930         0.356129   
    154. B(H 151,C  70)                  1.0943         0.354432   
    155. B(O 153,P 152)                  1.6296         0.779937   
    156. B(O 154,P 152)                  1.6130         0.828964   
    157. B(P 155,P 152)                  2.8482         0.033292   
    158. B(O 156,P 155)                  1.5019         1.247107   
    159. B(O 157,P 155)                  1.5967         0.880189   
    160. B(P 158,P 155)                  2.8593         0.031954   
    161. B(O 159,P 158)                  1.4985         1.262727   
    162. B(O 160,P 158)                  1.6131         0.828747   
    163. B(P 161,P 158)                  2.8176         0.037244   
    164. B(O 162,P 161)                  1.5204         1.165150   
    165. B(O 163,P 161)                  1.5208         1.163185   
    166. B(P 164,P 161)                  2.8150         0.037602   
    167. B(O 165,P 164)                  1.5345         1.106212   
    168. B(O 166,P 164)                  1.5189         1.171250   
    169. B(O 168,P 167)                  1.6434         0.741346   
    170. B(O 169,P 167)                  1.6408         0.748590   
    171. B(O 170,P 155)                  1.6067         0.848549   
    172. B(O 170,P 152)                  1.6101         0.837878   
    173. B(O 171,P 158)                  1.5824         0.927813   
    174. B(O 171,P 155)                  1.5774         0.944877   
    175. B(O 172,H  87)                 10.7246         0.010000   
    176. B(O 172,H  45)                 10.2658         0.010000   
    177. B(O 172,H   2)                 15.2563         0.010000   
    178. B(O 172,P 161)                  1.5968         0.879936   
    179. B(O 172,P 158)                  1.5874         0.910901   
    180. B(O 173,P 164)                  1.6039         0.857279   
    181. B(O 173,P 161)                  1.5959         0.882841   
    182. B(O 174,P 167)                  1.6011         0.866199   
    183. B(O 174,P 164)                  1.5974         0.877978   
    184. B(H 176,O 156)                  2.1945         0.010000   
    185. B(H 176,N 175)                  1.0355         0.393968   
    186. B(H 177,P 152)                  2.1304         0.026489   
    187. B(H 177,N 175)                  1.6709         0.038172   
    188. B(H 177,O 154)                  1.0000         0.448818   
    189. B(H 178,H  90)                  2.5154         0.010000   
    190. B(H 178,N 175)                  1.0289         0.403700   
    191. B(H 179,N 175)                  1.0277         0.405431   
    192. B(N 180,H  85)                  4.2138         0.010000   
    193. B(H 181,H 121)                  4.7907         0.010000   
    194. B(H 181,N 180)                  1.0275         0.405746   
    195. B(H 182,P 155)                  2.1696         0.022938   
    196. B(H 182,N 180)                  1.6077         0.048144   
    197. B(H 182,O 157)                  0.9969         0.453996   
    198. B(H 183,N 180)                  1.0278         0.405366   
    199. B(H 184,H 182)                  2.0365         0.010000   
    200. B(H 184,O 159)                  1.9492         0.013734   
    201. B(H 184,N 180)                  1.0419         0.384799   
    202. B(H 186,O 162)                  1.8841         0.017445   
    203. B(H 186,N 185)                  1.0479         0.376523   
    204. B(H 187,H   6)                  2.7664         0.010000   
    205. B(H 187,P 158)                  2.1220         0.027316   
    206. B(H 187,H 186)                  2.0427         0.010000   
    207. B(H 187,N 185)                  1.6242         0.045325   
    208. B(H 187,O 160)                  1.0038         0.442707   
    209. B(H 188,N 185)                  1.0267         0.407006   
    210. B(H 189,H 127)                  4.9998         0.010000   
    211. B(H 189,N 185)                  1.0304         0.401531   
    212. B(H 191,H 113)                  4.4745         0.010000   
    213. B(H 191,N 190)                  1.0111         0.430989   
    214. B(H 192,O 153)                  1.6418         0.042488   
    215. B(H 192,N 190)                  1.0355         0.394071   
    216. B(H 193,O 160)                  1.8849         0.017389   
    217. B(H 193,N 190)                  1.0260         0.408016   
    218. B(H 194,P 161)                  2.4911         0.010000   
    219. B(H 194,O 162)                  1.4523         0.085232   
    220. B(H 194,N 190)                  1.0487         0.375332   
    221. B(H 196,P 164)                  2.4797         0.010000   
    222. B(H 196,O 165)                  1.6722         0.037992   
    223. B(H 196,N 195)                  1.0402         0.387231   
    224. B(H 197,P 164)                  2.4504         0.010000   
    225. B(H 197,O 166)                  1.5406         0.061618   
    226. B(H 197,N 195)                  1.0507         0.372671   
    227. B(H 198,N 195)                  1.0058         0.439420   
    228. B(H 199,O 163)                  1.4591         0.083124   
    229. B(H 199,N 195)                  1.0460         0.379097   
    230. B(N 200,H  61)                  2.9827         0.010000   
    231. B(H 201,P 167)                  2.5747         0.010000   
    232. B(H 201,O 168)                  1.4829         0.076161   
    233. B(H 201,C  56)                  3.1808         0.010000   
    234. B(H 201,H  60)                  2.8562         0.010000   
    235. B(H 201,H  61)                  2.4960         0.010000   
    236. B(H 201,N 200)                  1.0499         0.373772   
    237. B(H 202,P 167)                  2.5632         0.010000   
    238. B(H 202,O 169)                  1.4396         0.089280   
    239. B(H 202,N 200)                  1.0527         0.369953   
    240. B(H 203,H  67)                  2.9753         0.010000   
    241. B(H 203,H 146)                  2.8931         0.010000   
    242. B(H 203,H  61)                  2.8419         0.010000   
    243. B(H 203,N 200)                  1.0021         0.445449   
    244. B(H 204,P 164)                  2.6737         0.010000   
    245. B(H 204,O 165)                  1.5359         0.062675   
    246. B(H 204,N 200)                  1.0372         0.391574   
    247. A(C  76,C   0,H 115)          108.6089         0.322552   
    248. A(C   1,C   0,H 115)          108.9622         0.319095   
    249. A(C   1,C   0,C  76)          110.6822         0.358382   
    250. A(C   1,C   0,C   4)          109.8051         0.354762   
    251. A(C   4,C   0,C  76)          111.2555         0.358756   
    252. A(C   4,C   0,H 115)          107.4355         0.319414   
    253. A(C   5,C   1,H   6)          106.6796         0.319049   
    254. A(C   0,C   1,H   6)          109.0182         0.318997   
    255. A(H   6,C   1,H   7)          106.0003         0.288296   
    256. A(C   0,C   1,H   7)          110.2640         0.318968   
    257. A(C   0,C   1,C   5)          114.6775         0.354454   
    258. A(C   5,C   1,H   7)          109.7812         0.319020   
    259. A(C  77,C   4,H  78)          110.5408         0.318474   
    260. A(H  78,C   4,H  79)          105.7862         0.288194   
    261. A(C  77,C   4,H  79)          109.0823         0.318494   
    262. A(C   0,C   4,H  79)          107.1734         0.319253   
    263. A(C   0,C   4,C  77)          114.1175         0.354255   
    264. A(C   0,C   4,H  78)          109.7497         0.319233   
    265. A(C   1,C   5,C   8)          109.6676         0.354283   
    266. A(C   1,C   5,H 118)          107.1747         0.319084   
    267. A(C  10,C   5,H 118)          108.4549         0.322567   
    268. A(C   8,C   5,C  10)          110.4352         0.358299   
    269. A(C   1,C   5,C  10)          111.9127         0.358533   
    270. A(C   8,C   5,H 118)          109.0974         0.318884   
    271. A(C  11,C   8,H  13)          109.6012         0.318837   
    272. A(C   5,C   8,C  11)          114.8274         0.354141   
    273. A(C  11,C   8,H  12)          106.9501         0.318760   
    274. A(H  12,C   8,H  13)          105.7828         0.288101   
    275. A(C   5,C   8,H  12)          109.1072         0.318684   
    276. A(C   5,C   8,H  13)          110.1372         0.318760   
    277. A(C   5,C  10,H 119)          111.1012         0.322968   
    278. A(H 119,C  10,H 120)          108.3166         0.289266   
    279. A(C   5,C  10,H  15)          111.7247         0.323361   
    280. A(C   5,C  10,H 120)          111.2268         0.323200   
    281. A(H  15,C  10,H 119)          107.5209         0.289404   
    282. A(H  15,C  10,H 120)          106.7476         0.289602   
    283. A(C  14,C  11,H 121)          109.1531         0.318908   
    284. A(C  16,C  11,H 121)          108.4842         0.322521   
    285. A(C  14,C  11,C  16)          110.4228         0.358253   
    286. A(C   8,C  11,H 121)          107.2901         0.318969   
    287. A(C   8,C  11,C  14)          109.4990         0.354158   
    288. A(C   8,C  11,C  16)          111.9015         0.358325   
    289. A(H  18,C  14,H  19)          105.7833         0.288100   
    290. A(C  11,C  14,H  18)          109.0270         0.318712   
    291. A(C  11,C  14,H  19)          110.1109         0.318761   
    292. A(C  17,C  14,H  18)          106.8712         0.318896   
    293. A(C  17,C  14,H  19)          109.6406         0.318945   
    294. A(C  11,C  14,C  17)          114.9600         0.354300   
    295. A(C  11,C  16,H 123)          111.2621         0.323150   
    296. A(C  11,C  16,H 122)          111.0877         0.322907   
    297. A(C  11,C  16,H  21)          111.7606         0.323345   
    298. A(H  21,C  16,H 122)          107.5002         0.289432   
    299. A(H 122,C  16,H 123)          108.2932         0.289266   
    300. A(H  21,C  16,H 123)          106.7305         0.289640   
    301. A(C  14,C  17,C  22)          112.0650         0.358578   
    302. A(C  20,C  17,C  22)          110.2967         0.358341   
    303. A(C  20,C  17,H 124)          109.2023         0.318902   
    304. A(C  14,C  17,C  20)          109.5122         0.354280   
    305. A(C  14,C  17,H 124)          107.2651         0.319104   
    306. A(C  22,C  17,H 124)          108.4106         0.322627   
    307. A(C  17,C  20,H  24)          109.1157         0.318750   
    308. A(H  24,C  20,H  25)          105.5761         0.288157   
    309. A(C  23,C  20,H  25)          109.4887         0.318944   
    310. A(C  23,C  20,H  24)          107.2636         0.318941   
    311. A(C  17,C  20,C  23)          114.7556         0.354267   
    312. A(C  17,C  20,H  25)          110.2005         0.318753   
    313. A(C  17,C  22,H 126)          111.2005         0.323243   
    314. A(C  17,C  22,H 125)          111.1125         0.322999   
    315. A(H  27,C  22,H 126)          106.8743         0.289539   
    316. A(C  17,C  22,H  27)          111.6242         0.323323   
    317. A(H  27,C  22,H 125)          107.4856         0.289329   
    318. A(H 125,C  22,H 126)          108.3478         0.289262   
    319. A(C  20,C  23,H 127)          107.7593         0.318925   
    320. A(C  26,C  23,C  28)          112.2582         0.359148   
    321. A(C  20,C  23,C  28)          112.2697         0.359196   
    322. A(C  26,C  23,H 127)          107.7879         0.318884   
    323. A(C  28,C  23,H 127)          107.9885         0.323003   
    324. A(C  20,C  23,C  26)          108.5844         0.354440   
    325. A(H  30,C  26,H  31)          105.5847         0.288158   
    326. A(C  23,C  26,H  31)          109.5113         0.318902   
    327. A(C  23,C  26,C  29)          114.7256         0.354271   
    328. A(C  29,C  26,H  30)          109.1116         0.318797   
    329. A(C  23,C  26,H  30)          107.2668         0.318903   
    330. A(C  29,C  26,H  31)          110.2031         0.318796   
    331. A(H  33,C  28,H 128)          108.2908         0.289384   
    332. A(C  23,C  28,H 128)          111.2043         0.323636   
    333. A(C  23,C  28,H  33)          111.3836         0.323845   
    334. A(H 128,C  28,H 129)          108.2776         0.289388   
    335. A(C  23,C  28,H 129)          111.4054         0.323850   
    336. A(H  33,C  28,H 129)          106.0706         0.289567   
    337. A(C  26,C  29,C  34)          110.3443         0.358382   
    338. A(C  26,C  29,H 130)          109.1580         0.318942   
    339. A(C  32,C  29,C  34)          111.9867         0.358536   
    340. A(C  26,C  29,C  32)          109.5541         0.354300   
    341. A(C  34,C  29,H 130)          108.4171         0.322613   
    342. A(C  32,C  29,H 130)          107.2903         0.319074   
    343. A(C  29,C  32,H  36)          106.9280         0.318886   
    344. A(C  29,C  32,H  37)          109.6611         0.318927   
    345. A(C  35,C  32,H  36)          109.0199         0.318738   
    346. A(C  35,C  32,H  37)          110.1856         0.318779   
    347. A(H  36,C  32,H  37)          105.7787         0.288120   
    348. A(C  29,C  32,C  35)          114.8281         0.354282   
    349. A(H  39,C  34,H 131)          108.3354         0.289259   
    350. A(C  29,C  34,H 131)          111.1080         0.322992   
    351. A(C  29,C  34,H  39)          111.1863         0.323227   
    352. A(H 131,C  34,H 132)          107.4939         0.289342   
    353. A(H  39,C  34,H 132)          106.8699         0.289544   
    354. A(C  29,C  34,H 132)          111.6511         0.323325   
    355. A(C  38,C  35,C  40)          111.8681         0.358282   
    356. A(C  32,C  35,C  40)          110.4473         0.358253   
    357. A(C  32,C  35,C  38)          109.5694         0.354140   
    358. A(C  38,C  35,H 133)          107.2778         0.318934   
    359. A(C  40,C  35,H 133)          108.4649         0.322501   
    360. A(C  32,C  35,H 133)          109.1206         0.318910   
    361. A(C  41,C  38,H  42)          109.1260         0.318775   
    362. A(C  35,C  38,H  42)          107.0127         0.318746   
    363. A(C  35,C  38,C  41)          114.6739         0.354200   
    364. A(C  35,C  38,H  43)          109.6174         0.318841   
    365. A(C  41,C  38,H  43)          110.1415         0.318869   
    366. A(H  42,C  38,H  43)          105.8541         0.288139   
    367. A(C  35,C  40,H 134)          111.1129         0.322892   
    368. A(C  35,C  40,H  45)          111.2343         0.323140   
    369. A(H 134,C  40,H 135)          107.4880         0.289419   
    370. A(H  45,C  40,H 135)          106.7440         0.289632   
    371. A(C  35,C  40,H 135)          111.7624         0.323325   
    372. A(H  45,C  40,H 134)          108.2928         0.289261   
    373. A(C  38,C  41,C  46)          110.4749         0.358305   
    374. A(C  38,C  41,C  44)          109.7963         0.354374   
    375. A(C  44,C  41,C  46)          111.6683         0.358448   
    376. A(C  46,C  41,H 136)          108.4698         0.322533   
    377. A(C  44,C  41,H 136)          107.3046         0.319124   
    378. A(C  38,C  41,H 136)          109.0315         0.319002   
    379. A(C  47,C  44,H  48)          109.0947         0.318725   
    380. A(C  47,C  44,H  49)          110.4828         0.318657   
    381. A(C  41,C  44,H  49)          109.7169         0.318923   
    382. A(C  41,C  44,C  47)          114.3239         0.354208   
    383. A(H  48,C  44,H  49)          105.6982         0.288161   
    384. A(C  41,C  44,H  48)          107.1115         0.318990   
    385. A(C  41,C  46,H  51)          111.2638         0.323134   
    386. A(H 137,C  46,H 138)          107.6264         0.289407   
    387. A(H  51,C  46,H 138)          106.7800         0.289618   
    388. A(C  41,C  46,H 138)          111.7083         0.323297   
    389. A(H  51,C  46,H 137)          108.2166         0.289268   
    390. A(C  41,C  46,H 137)          111.0455         0.322888   
    391. A(C  50,C  47,C  52)          111.6970         0.358662   
    392. A(C  44,C  47,C  52)          110.4363         0.358163   
    393. A(C  44,C  47,C  50)          109.8433         0.354393   
    394. A(C  52,C  47,H 139)          108.4748         0.322468   
    395. A(C  50,C  47,H 139)          107.1262         0.319199   
    396. A(C  44,C  47,H 139)          109.1674         0.318772   
    397. A(H  54,C  50,H  55)          105.8361         0.288307   
    398. A(C  47,C  50,H  54)          107.1684         0.319137   
    399. A(C  53,C  50,H  54)          109.2212         0.318685   
    400. A(C  47,C  50,C  53)          114.3063         0.354363   
    401. A(C  47,C  50,H  55)          109.6680         0.319267   
    402. A(C  53,C  50,H  55)          110.2525         0.318815   
    403. A(C  47,C  52,H 141)          111.6463         0.323251   
    404. A(H 140,C  52,H 141)          107.5209         0.289340   
    405. A(C  47,C  52,H  57)          111.1757         0.323163   
    406. A(H  57,C  52,H 141)          106.9322         0.289565   
    407. A(H  57,C  52,H 140)          108.1686         0.289264   
    408. A(C  47,C  52,H 140)          111.1955         0.322900   
    409. A(C  56,C  53,H 142)          107.4725         0.319337   
    410. A(C  50,C  53,C  58)          110.4991         0.358368   
    411. A(C  56,C  53,C  58)          111.9240         0.358971   
    412. A(C  50,C  53,C  56)          109.4996         0.354435   
    413. A(C  58,C  53,H 142)          108.2792         0.322750   
    414. A(C  50,C  53,H 142)          109.0736         0.318823   
    415. A(C  53,C  56,H 201)          126.5723         0.129735   
    416. A(C  59,C  56,H  60)          108.7844         0.319097   
    417. A(H  60,C  56,H 201)           63.0462         0.124277   
    418. A(H  60,C  56,H  61)          105.8102         0.288314   
    419. A(C  59,C  56,H  61)          110.4075         0.318860   
    420. A(C  59,C  56,H 201)          117.8604         0.129684   
    421. A(C  53,C  56,C  59)          114.9446         0.354696   
    422. A(H  61,C  56,H 201)           43.1915         0.124241   
    423. A(C  53,C  56,H  61)          109.6400         0.319149   
    424. A(C  53,C  56,H  60)          106.7929         0.319387   
    425. A(C  53,C  58,H  63)          111.2268         0.323353   
    426. A(C  53,C  58,H 143)          111.0579         0.323169   
    427. A(C  53,C  58,H 144)          111.5403         0.323436   
    428. A(H 143,C  58,H 144)          107.6734         0.289378   
    429. A(H  63,C  58,H 144)          106.9985         0.289535   
    430. A(H  63,C  58,H 143)          108.1552         0.289307   
    431. A(C  62,C  59,C  64)          111.9613         0.358354   
    432. A(C  56,C  59,C  64)          110.3072         0.358529   
    433. A(C  56,C  59,C  62)          109.6188         0.354191   
    434. A(C  62,C  59,H 145)          107.1573         0.318845   
    435. A(C  64,C  59,H 145)          108.4894         0.322605   
    436. A(C  56,C  59,H 145)          109.2166         0.318994   
    437. A(C  56,H  60,H 201)           96.9340         0.114416   
    438. A(N 200,H  61,H 203)           19.6207         0.094169   
    439. A(N 200,H  61,H 201)           19.6290         0.095891   
    440. A(C  56,H  61,N 200)          130.9292         0.129054   
    441. A(C  56,H  61,H 203)          125.9482         0.114693   
    442. A(C  56,H  61,H 201)          119.2824         0.123254   
    443. A(H 201,H  61,H 203)           37.1371         0.093420   
    444. A(C  59,C  62,C  65)          114.6963         0.354409   
    445. A(H  66,C  62,H  67)          106.0129         0.288109   
    446. A(C  65,C  62,H  67)          110.0761         0.319204   
    447. A(C  59,C  62,H  67)          109.5988         0.318865   
    448. A(C  65,C  62,H  66)          108.9867         0.318897   
    449. A(C  59,C  62,H  66)          107.0695         0.318559   
    450. A(C  59,C  64,H  69)          111.1521         0.323250   
    451. A(H 146,C  64,H 147)          107.3741         0.289404   
    452. A(C  59,C  64,H 147)          111.6930         0.323437   
    453. A(H  69,C  64,H 147)          106.8403         0.289602   
    454. A(H  69,C  64,H 146)          108.4360         0.289244   
    455. A(C  59,C  64,H 146)          111.1460         0.323019   
    456. A(C  68,C  65,C  70)          110.8098         0.359295   
    457. A(C  62,C  65,C  70)          110.8134         0.358264   
    458. A(C  62,C  65,C  68)          109.7363         0.355817   
    459. A(C  68,C  65,H 148)          107.7374         0.320156   
    460. A(C  70,C  65,H 148)          108.5409         0.322276   
    461. A(C  62,C  65,H 148)          109.1269         0.319274   
    462. A(C  62,H  67,H 203)          140.8312         0.112010   
    463. A(H  72,C  68,H  73)          106.7706         0.288474   
    464. A(C  65,C  68,H  73)          110.1517         0.320106   
    465. A(C  65,C  68,H  72)          108.8544         0.320179   
    466. A(C  65,C  68,C  71)          113.8780         0.361693   
    467. A(C  71,C  68,H  72)          107.7165         0.324369   
    468. A(C  71,C  68,H  73)          109.2001         0.324295   
    469. A(H 149,C  70,H 150)          107.7287         0.289408   
    470. A(H 149,C  70,H 151)          108.0159         0.289191   
    471. A(H 150,C  70,H 151)          106.8398         0.289612   
    472. A(C  65,C  70,H 151)          111.1729         0.322800   
    473. A(C  65,C  70,H 150)          111.8300         0.323053   
    474. A(C  65,C  70,H 149)          111.0507         0.322562   
    475. A(C  68,C  71,H  74)          111.1652         0.324855   
    476. A(H   3,C  71,H  74)          108.5975         0.289467   
    477. A(H   2,C  71,H  74)          107.8306         0.289294   
    478. A(H   2,C  71,C  68)          110.0042         0.324775   
    479. A(H   2,C  71,H   3)          107.6062         0.289399   
    480. A(H   3,C  71,C  68)          111.4980         0.324978   
    481. A(C   0,C  76,H   9)          111.7445         0.323330   
    482. A(H 116,C  76,H 117)          108.1611         0.289238   
    483. A(H   9,C  76,H 117)          106.8582         0.289646   
    484. A(C   0,C  76,H 117)          111.2178         0.323125   
    485. A(H   9,C  76,H 116)          107.6056         0.289414   
    486. A(C   0,C  76,H 116)          111.0535         0.322854   
    487. A(C  82,C  77,H 112)          108.2855         0.323074   
    488. A(C  80,C  77,H 112)          107.2295         0.319548   
    489. A(C   4,C  77,H 112)          109.2070         0.318626   
    490. A(C  80,C  77,C  82)          112.3423         0.359584   
    491. A(C   4,C  77,C  82)          110.4803         0.358502   
    492. A(C   4,C  77,C  80)          109.1985         0.354442   
    493. A(H  84,C  80,H  85)          106.3962         0.288596   
    494. A(C  83,C  80,H  85)          109.0687         0.318992   
    495. A(C  77,C  80,H  85)          105.8738         0.319632   
    496. A(C  83,C  80,H  84)          110.1815         0.319004   
    497. A(C  77,C  80,H  84)          109.3167         0.319644   
    498. A(C  77,C  80,C  83)          115.5401         0.354769   
    499. A(H 113,C  82,H 114)          108.5222         0.289255   
    500. A(C  77,C  82,H 114)          111.0474         0.323680   
    501. A(H  75,C  82,H 114)          106.7657         0.289507   
    502. A(C  77,C  82,H 113)          111.1824         0.323424   
    503. A(H  75,C  82,H 113)          107.6748         0.289288   
    504. A(H  75,C  82,C  77)          111.4644         0.323719   
    505. A(C  88,C  83,H 109)          109.1388         0.321880   
    506. A(C  86,C  83,H 109)          108.8058         0.318418   
    507. A(C  80,C  83,H 109)          108.6852         0.319084   
    508. A(C  86,C  83,C  88)          109.8798         0.356476   
    509. A(C  80,C  83,C  88)          109.7380         0.357252   
    510. A(C  80,C  83,C  86)          110.5608         0.353264   
    511. A(H  90,C  86,H  91)          105.7629         0.288395   
    512. A(C  89,C  86,H  91)          106.2873         0.318981   
    513. A(C  83,C  86,H  91)          109.3158         0.318267   
    514. A(C  89,C  86,H  90)          109.8045         0.318880   
    515. A(C  83,C  86,H  90)          110.4249         0.318166   
    516. A(C  83,C  86,C  89)          114.7807         0.353320   
    517. A(H 110,C  88,H 111)          107.4501         0.289561   
    518. A(C  83,C  88,H 111)          111.8738         0.322661   
    519. A(H  81,C  88,H 111)          107.0130         0.290039   
    520. A(C  83,C  88,H 110)          110.9565         0.322049   
    521. A(H  81,C  88,H 110)          107.4961         0.289512   
    522. A(H  81,C  88,C  83)          111.8072         0.322605   
    523. A(C  94,C  89,H 106)          108.3535         0.322753   
    524. A(C  92,C  89,H 106)          108.8628         0.318816   
    525. A(C  86,C  89,H 106)          107.3208         0.318910   
    526. A(C  92,C  89,C  94)          110.4904         0.358464   
    527. A(C  86,C  89,C  94)          112.0171         0.358575   
    528. A(C  86,C  89,C  92)          109.6878         0.354034   
    529. A(H  96,C  92,H  97)          105.6463         0.288179   
    530. A(C  95,C  92,H  97)          107.1066         0.319940   
    531. A(C  89,C  92,H  97)          109.4337         0.318693   
    532. A(C  95,C  92,H  96)          109.7901         0.319978   
    533. A(C  89,C  92,H  96)          110.2059         0.318731   
    534. A(C  89,C  92,C  95)          114.2590         0.355364   
    535. A(H 107,C  94,H 108)          107.4864         0.289405   
    536. A(C  89,C  94,H 108)          111.7918         0.323564   
    537. A(H  87,C  94,H 108)          106.7593         0.289626   
    538. A(C  89,C  94,H 107)          111.1319         0.323167   
    539. A(H  87,C  94,H 107)          108.4570         0.289287   
    540. A(H  87,C  94,C  89)          111.0189         0.323426   
    541. A(C 100,C  95,H 103)          108.0780         0.323285   
    542. A(C  98,C  95,H 103)          107.5473         0.322491   
    543. A(C  92,C  95,H 103)          108.3664         0.320013   
    544. A(C  98,C  95,C 100)          109.5609         0.363518   
    545. A(C  92,C  95,C 100)          113.3515         0.360604   
    546. A(C  92,C  95,C  98)          109.7543         0.359683   
    547. A(H 101,C  98,H 102)          107.5903         0.289084   
    548. A(H  99,C  98,H 102)          108.0500         0.289067   
    549. A(C  95,C  98,H 102)          110.8400         0.322957   
    550. A(H  99,C  98,H 101)          108.0789         0.289084   
    551. A(C  95,C  98,H  99)          111.2689         0.322956   
    552. A(C  95,C  98,H 101)          110.8708         0.322977   
    553. A(H 104,C 100,H 105)          107.8669         0.289065   
    554. A(C  95,C 100,H 105)          110.7582         0.323700   
    555. A(H  93,C 100,H 105)          106.9954         0.289239   
    556. A(C  95,C 100,H 104)          111.2818         0.323803   
    557. A(H  93,C 100,H 104)          108.4654         0.289326   
    558. A(H  93,C 100,C  95)          111.3037         0.324007   
    559. A(C  64,H 146,H 203)          139.7245         0.113680   
    560. A(P 155,P 152,O 170)           27.6670         0.327544   
    561. A(O 154,P 152,O 170)           97.1759         0.547126   
    562. A(O 153,P 152,O 170)           97.7051         0.540848   
    563. A(O 154,P 152,P 155)          111.1645         0.326967   
    564. A(O 153,P 152,P 155)          117.7722         0.323706   
    565. A(O 153,P 152,O 154)           96.9808         0.539756   
    566. A(P 152,O 153,H 192)          131.8941         0.271520   
    567. A(P 152,O 154,H 177)          106.8751         0.404521   
    568. A(O 170,P 155,O 171)          104.6248         0.562254   
    569. A(P 158,P 155,O 171)           25.2308         0.331856   
    570. A(O 157,P 155,O 171)          105.1177         0.566192   
    571. A(O 156,P 155,O 171)          115.4176         0.605350   
    572. A(P 152,P 155,O 171)          101.6755         0.334121   
    573. A(P 158,P 155,O 170)           96.5869         0.326017   
    574. A(O 157,P 155,O 170)          103.8289         0.554718   
    575. A(O 156,P 155,O 170)          113.6943         0.592935   
    576. A(P 152,P 155,O 170)           27.7315         0.328228   
    577. A(O 157,P 155,P 158)           84.2052         0.327989   
    578. A(O 156,P 155,P 158)          138.6502         0.347600   
    579. A(P 152,P 155,P 158)          105.7977         0.211763   
    580. A(O 156,P 155,O 157)          113.0206         0.597128   
    581. A(P 152,P 155,O 157)          130.0136         0.330218   
    582. A(P 152,P 155,O 156)           91.5370         0.350013   
    583. A(P 155,O 157,H 182)          111.4389         0.409663   
    584. A(O 171,P 158,O 172)          103.8632         0.567931   
    585. A(O 160,P 158,O 172)          103.2639         0.555846   
    586. A(O 159,P 158,O 172)          115.2394         0.602532   
    587. A(P 155,P 158,O 172)          127.0876         0.329851   
    588. A(P 161,P 158,O 171)           90.5091         0.339390   
    589. A(O 160,P 158,O 171)          105.6130         0.557794   
    590. A(O 159,P 158,O 171)          114.8384         0.604675   
    591. A(P 155,P 158,O 171)           25.1461         0.330856   
    592. A(P 161,P 158,O 172)           27.8522         0.338350   
    593. A(O 160,P 158,P 161)           83.7222         0.333072   
    594. A(O 159,P 158,P 161)          142.4944         0.357481   
    595. A(P 155,P 158,P 161)          107.8707         0.214920   
    596. A(O 159,P 158,O 160)          112.7979         0.591663   
    597. A(P 155,P 158,O 160)           89.2236         0.324753   
    598. A(P 155,P 158,O 159)          105.8506         0.348330   
    599. A(P 158,O 159,H 184)          122.2193         0.246637   
    600. A(H 187,O 160,H 193)           92.1639         0.193048   
    601. A(P 158,O 160,H 193)          140.8407         0.240168   
    602. A(P 158,O 160,H 187)          106.0111         0.403524   
    603. A(O 172,P 161,O 173)          101.1358         0.558882   
    604. A(P 164,P 161,O 173)           28.4650         0.337126   
    605. A(O 163,P 161,O 173)          112.2394         0.589519   
    606. A(O 162,P 161,O 173)          110.5421         0.589711   
    607. A(P 158,P 161,O 173)          127.2695         0.336590   
    608. A(P 164,P 161,O 172)           96.6020         0.336941   
    609. A(O 163,P 161,O 172)          109.3312         0.589146   
    610. A(O 162,P 161,O 172)          107.1355         0.589337   
    611. A(P 158,P 161,O 172)           27.6738         0.336406   
    612. A(O 163,P 161,P 164)           87.9010         0.353107   
    613. A(O 162,P 161,P 164)          137.4266         0.353208   
    614. A(P 158,P 161,P 164)          114.9840         0.219645   
    615. A(O 162,P 161,O 163)          115.3625         0.621960   
    616. A(P 158,P 161,O 163)           88.7106         0.352537   
    617. A(P 158,P 161,O 162)          101.3767         0.352638   
    618. A(H 186,O 162,H 194)           95.7483         0.160713   
    619. A(P 161,O 162,H 186)          117.2898         0.252404   
    620. A(P 161,O 162,H 194)          113.8391         0.322989   
    621. A(P 161,O 163,H 199)          132.0820         0.321577   
    622. A(O 173,P 164,O 174)          101.5764         0.555533   
    623. A(O 166,P 164,O 174)          113.1796         0.589676   
    624. A(O 165,P 164,O 174)          111.8142         0.583244   
    625. A(P 161,P 164,O 174)          127.6383         0.336816   
    626. A(O 166,P 164,O 173)          108.0686         0.586980   
    627. A(O 165,P 164,O 173)          107.0066         0.580582   
    628. A(P 161,P 164,O 173)           28.3102         0.335481   
    629. A(O 165,P 164,O 166)          114.1485         0.616559   
    630. A(P 161,P 164,O 166)           85.7906         0.353520   
    631. A(P 161,P 164,O 165)          101.9282         0.350122   
    632. A(H 196,O 165,H 204)          125.9768         0.168779   
    633. A(P 164,O 165,H 196)          101.2108         0.281605   
    634. A(P 164,O 165,H 204)          121.1017         0.304712   
    635. A(P 164,O 166,H 197)          106.4335         0.306680   
    636. A(O 169,P 167,O 174)           99.2456         0.540054   
    637. A(O 168,P 167,O 174)           95.2107         0.539062   
    638. A(O 168,P 167,O 169)           91.8332         0.524440   
    639. A(P 167,O 168,H 201)          110.7781         0.294917   
    640. A(P 167,O 169,H 202)          112.4654         0.302928   
    641. A(P 152,O 170,P 155)          124.6015         0.549554   
    642. A(P 155,O 171,P 158)          129.6231         0.571917   
    643. A(P 158,O 172,P 161)          124.4740         0.562222   
    644. A(P 161,O 173,P 164)          123.2248         0.556116   
    645. A(P 164,O 174,P 167)          134.2109         0.556627   
    646. A(H 177,N 175,H 179)          119.3684         0.210864   
    647. A(H 177,N 175,H 178)          112.1646         0.210746   
    648. A(H 176,N 175,H 177)          114.9425         0.210075   
    649. A(H 178,N 175,H 179)          102.9803         0.296833   
    650. A(H 176,N 175,H 179)          102.8550         0.295688   
    651. A(H 176,N 175,H 178)          102.5208         0.295488   
    652. A(O 154,H 177,N 175)          171.0576         0.213700   
    653. A(H 182,N 180,H 183)          129.5228         0.217432   
    654. A(H 181,N 180,H 182)          116.7017         0.217459   
    655. A(H 182,N 180,H 184)           98.1860         0.215927   
    656. A(H 183,N 180,H 184)          102.3819         0.294582   
    657. A(H 181,N 180,H 184)          102.2703         0.294625   
    658. A(H 181,N 180,H 183)          103.1792         0.297063   
    659. A(N 180,H 182,H 184)           30.4250         0.120674   
    660. A(O 157,H 182,N 180)          161.5112         0.220768   
    661. A(O 157,H 182,H 184)          131.3224         0.141634   
    662. A(O 159,H 184,H 182)           98.6122         0.112845   
    663. A(N 180,H 184,H 182)           51.3891         0.139700   
    664. A(O 159,H 184,N 180)          147.9162         0.184555   
    665. A(H 187,N 185,H 188)          134.8843         0.215805   
    666. A(H 186,N 185,H 187)           97.3724         0.213591   
    667. A(H 187,N 185,H 189)          112.6901         0.215417   
    668. A(H 188,N 185,H 189)          102.3814         0.296762   
    669. A(H 186,N 185,H 189)          101.7471         0.293133   
    670. A(H 186,N 185,H 188)          102.4525         0.293760   
    671. A(O 162,H 186,H 187)           98.2973         0.114043   
    672. A(N 185,H 186,H 187)           52.0481         0.139193   
    673. A(O 162,H 186,N 185)          150.1442         0.189376   
    674. A(N 185,H 187,H 186)           30.5795         0.120084   
    675. A(O 160,H 187,H 186)          123.3445         0.141067   
    676. A(O 160,H 187,N 185)          153.9238         0.218242   
    677. A(H 193,N 190,H 194)          105.2734         0.293728   
    678. A(H 192,N 190,H 194)          108.7135         0.292123   
    679. A(H 191,N 190,H 194)          112.6052         0.296282   
    680. A(H 192,N 190,H 193)          104.7914         0.295998   
    681. A(H 191,N 190,H 193)          113.8929         0.300236   
    682. A(H 191,N 190,H 192)          111.0717         0.298580   
    683. A(O 153,H 192,N 190)          141.9370         0.213054   
    684. A(O 160,H 193,N 190)          144.5534         0.191144   
    685. A(O 162,H 194,N 190)          153.9344         0.232632   
    686. A(H 198,N 195,H 199)          117.0527         0.297664   
    687. A(H 197,N 195,H 199)          102.9754         0.290025   
    688. A(H 196,N 195,H 199)          103.6837         0.291777   
    689. A(H 197,N 195,H 198)          113.7758         0.296858   
    690. A(H 196,N 195,H 198)          115.7924         0.298669   
    691. A(H 196,N 195,H 197)          101.5791         0.290994   
    692. A(O 165,H 196,N 195)          139.8228         0.209474   
    693. A(O 166,H 197,N 195)          140.4693         0.222248   
    694. A(O 163,H 199,N 195)          156.9117         0.232143   
    695. A(H  61,N 200,H 204)          108.2910         0.129621   
    696. A(H  61,N 200,H 203)           72.2267         0.130823   
    697. A(H  61,N 200,H 202)          140.2891         0.129102   
    698. A(H  61,N 200,H 201)           53.0023         0.129195   
    699. A(H 203,N 200,H 204)          120.9898         0.299848   
    700. A(H 202,N 200,H 204)          101.8396         0.291169   
    701. A(H 201,N 200,H 204)          108.2677         0.291640   
    702. A(H 202,N 200,H 203)          113.0827         0.297155   
    703. A(H 201,N 200,H 203)          115.0328         0.297639   
    704. A(H 201,N 200,H 202)           93.4728         0.289051   
    705. A(C  56,H 201,O 168)           91.8436         0.113672   
    706. A(H  60,H 201,O 168)           74.4219         0.106775   
    707. A(H  61,H 201,O 168)          105.5441         0.112981   
    708. A(O 168,H 201,N 200)          145.9701         0.228888   
    709. A(C  56,H 201,H  60)           20.0198         0.093494   
    710. A(C  56,H 201,H  61)           17.5261         0.095063   
    711. A(C  56,H 201,N 200)          118.3844         0.124365   
    712. A(H  60,H 201,H  61)           37.4318         0.093368   
    713. A(H  60,H 201,N 200)          131.1428         0.114479   
    714. A(H  61,H 201,N 200)          107.3687         0.123375   
    715. A(O 169,H 202,N 200)          147.8300         0.233675   
    716. A(H  67,H 203,H 146)           52.6787         0.091843   
    717. A(H  61,H 203,H  67)           62.0838         0.091967   
    718. A(H  67,H 203,N 200)          122.3967         0.113010   
    719. A(H  61,H 203,H 146)           51.7941         0.092177   
    720. A(H 146,H 203,N 200)          138.5740         0.114710   
    721. A(H  61,H 203,N 200)           88.1526         0.115828   
    722. A(O 165,H 204,N 200)          151.5924         0.224268   
    723. D(C   5,C   1,C   0,C  76)    100.5127         0.010000   
    724. D(H   6,C   1,C   0,C   4)    -16.7667         0.010000   
    725. D(C   5,C   1,C   0,C   4)   -136.2702         0.010000   
    726. D(H  78,C   4,C   0,C   1)    -62.4868         0.010000   
    727. D(C  77,C   4,C   0,C  76)    -64.3014         0.010000   
    728. D(C  77,C   4,C   0,C   1)    172.8192         0.010000   
    729. D(C   8,C   5,C   1,C   0)    176.7209         0.010000   
    730. D(C   8,C   5,C   1,H   6)     55.9209         0.010000   
    731. D(C  10,C   5,C   1,C   0)    -60.3622         0.010000   
    732. D(C  11,C   8,C   5,C  10)    100.6651         0.010000   
    733. D(H  12,C   8,C   5,C   1)    -15.5333         0.010000   
    734. D(C  11,C   8,C   5,C   1)   -135.5484         0.010000   
    735. D(H 119,C  10,C   5,C   1)    -54.9242         0.011019   
    736. D(H  15,C  10,C   5,C   8)    -52.5179         0.011019   
    737. D(H  15,C  10,C   5,C   1)   -174.9985         0.011019   
    738. D(C  16,C  11,C   8,C   5)    -59.5715         0.010000   
    739. D(C  14,C  11,C   8,H  12)     56.4525         0.010000   
    740. D(C  14,C  11,C   8,C   5)    177.6544         0.010000   
    741. D(H  18,C  14,C  11,C   8)    -16.5792         0.010000   
    742. D(C  17,C  14,C  11,C  16)     99.8294         0.010000   
    743. D(C  17,C  14,C  11,C   8)   -136.5221         0.010000   
    744. D(H  21,C  16,C  11,C   8)   -175.2314         0.010998   
    745. D(H 122,C  16,C  11,C   8)    -55.1684         0.010998   
    746. D(H  21,C  16,C  11,C  14)    -52.9838         0.010998   
    747. D(C  20,C  17,C  14,H  18)     55.7909         0.010000   
    748. D(C  20,C  17,C  14,C  11)    176.9177         0.010000   
    749. D(C  22,C  17,C  14,C  11)    -60.3483         0.010000   
    750. D(H  24,C  20,C  17,C  14)    -13.4507         0.010000   
    751. D(C  23,C  20,C  17,C  22)    102.3931         0.010000   
    752. D(C  23,C  20,C  17,C  14)   -133.8280         0.010000   
    753. D(H  27,C  22,C  17,C  14)   -174.4102         0.011035   
    754. D(H  27,C  22,C  17,C  20)    -52.1219         0.011035   
    755. D(H 125,C  22,C  17,C  14)    -54.4410         0.011035   
    756. D(C  26,C  23,C  20,C  17)    173.4673         0.010000   
    757. D(C  28,C  23,C  20,C  17)    -61.8159         0.010000   
    758. D(C  26,C  23,C  20,H  24)     52.0725         0.010000   
    759. D(H  30,C  26,C  23,C  20)    -51.8817         0.010000   
    760. D(C  29,C  26,C  23,C  28)     62.0221         0.010000   
    761. D(C  29,C  26,C  23,C  20)   -173.2543         0.010000   
    762. D(H 128,C  28,C  23,C  20)    -61.4440         0.011252   
    763. D(H  33,C  28,C  23,C  20)    177.6635         0.011252   
    764. D(H  33,C  28,C  23,C  26)    -59.6719         0.011252   
    765. D(C  34,C  29,C  26,C  23)   -102.1751         0.010000   
    766. D(C  32,C  29,C  26,H  30)     13.7260         0.010000   
[...]
 H     59  54  51     2.059794817901   111.03823346    53.29310006
 H     60  57  54     2.072999301183   107.74711151    20.41004020
 H     65  60  57     2.070786318469   110.16124423   291.79564198
 H     65  60  57     2.058404570303   111.37193397    51.13833390
 H     66  63  60     2.074579611465   107.68109617    22.37840553
 H     71  66  63     2.068679235676   110.06650701   292.53163486
 H     71  66  63     2.058624604290   111.72100608    52.24536046
 H     71  66  63     2.060680820609   111.90016538   172.92536552
 P    111  89  82     7.232684304018   156.69820596    99.90172102
 O    153 111  89     2.838918779326    81.74581199   259.86889799
 O    153 111  89     3.008039523886    52.06141646   135.52609898
 P    153 111  89     5.575275646297    90.15919551    24.00143427
 O    156 153 111     2.780838812725    92.34765641   122.18921795
 O    156 153 111     2.926502971585   128.84975445   350.47659641
 P    156 153 111     5.560409118145   104.64297941   254.83486864
 O    159 156 153     2.776196907868   106.84276421   164.09015837
 O    159 156 153     2.971432157700    89.93371421    47.38125254
 P    159 156 153     5.418850004390   107.13015807   322.92112122
 O    162 159 156     2.832739350717   103.41940549   121.93115449
 O    162 159 156     2.813450714608    87.95447335     5.12188104
 P    162 159 156     5.397455313649   111.59762358   275.72676186
 O    165 162 159     2.861542521388   104.57839391   132.95360915
 O    165 162 159     2.798210573697    89.52309364    14.43456622
 P    165 162 159     5.557355084152   146.79503823   255.23840458
 O    168 165 162     2.811429924372   119.72235299   295.48592602
 O    168 165 162     2.812174606029    86.80186381   168.61188343
 O    156 153 111     2.971064089674    27.53746355   332.66649506
 O    159 156 153     3.010285141961    24.26243485   277.28008317
 O    159 156 153     3.006771651783   125.30141790   298.21197616
 O    162 159 156     3.018668704414   125.39542745   247.32446270
 O    165 162 159     3.060460741158   121.04544260   256.45342220
 N    155 153 111     5.082027797344   109.48722382   252.59320559
 H    176 155 153     1.928586881155   102.34873389     1.87602424
 H    155 153 111     1.928642597709   112.84839692   252.83932686
 H    176 155 153     1.917547544801   111.88303975   117.96280757
 H    176 155 153     1.913859214902   116.01101588   243.01410009
 N    158 156 153     4.896145140680   111.72668529   187.00493336
 H    181 158 156     1.915527430029   117.34842642   193.46504663
 H    158 156 153     1.964912729285   113.69815364   178.44775886
 H    181 158 156     1.916352170026   119.35901989   326.10883824
 H    181 158 156     1.936084360281    93.32811898    79.09940185
 N    161 159 156     4.955059775135   105.81931320   179.82832034
 H    186 161 159     1.936234276433    89.36091375    76.12907271
 H    161 159 156     1.952019714302   108.11845106   167.11904225
 H    186 161 159     1.914631789276   130.48352416   191.99659314
 H    186 161 159     1.918742730948   110.17242774   327.27066294
 N    154 153 111     5.004719971110   129.54482743   104.39310579
 H    191 154 153     1.916228545740   103.55482724   199.77464624
 H    191 154 153     1.983397990000    18.06698123    88.96864255
 H    191 154 153     1.934259417340    91.57173357   311.80468718
 H    191 154 153     2.004224345874   130.01262753    61.32826328
 N    164 162 159     4.960920049317   122.02689122   266.96489413
 H    196 164 162     1.955920912507    96.41830025   289.83248946
 H    196 164 162     1.976034324071    92.58916095    29.99975229
 H    196 164 162     1.911078931168   129.77202414   157.42658864
 H    196 164 162     1.993912384531    15.03196091   169.77193701
 N    166 165 162     5.025432768982   114.80654508   150.45233719
 H    201 166 165     1.961730550386   105.38471462   317.09006526
 H    201 166 165     1.962964270533    88.49623636    57.42159173
 H    201 166 165     1.916310575709   130.84382802   178.27325537
 H    201 166 165     2.004429904351    15.63180911   215.32650421



           ************************************************************
           *        Program running with 24 parallel MPI-processes    *
           *              working on a common directory               *
           ************************************************************
------------------------------------------------------------------------------
                   ___                                                        
                  /   \      - P O W E R E D   B Y -                         
                 /     \                                                     
                 |  |  |   _    _      __       _____    __    __             
                 |  |  |  | |  | |    /  \     |  _  \  |  |  /  |          
                  \  \/   | |  | |   /    \    | | | |  |  | /  /          
                 / \  \   | |__| |  /  /\  \   | |_| |  |  |/  /          
                |  |  |   |  __  | /  /__\  \  |    /   |      \           
                |  |  |   | |  | | |   __   |  |    \   |  |\   \          
                \     /   | |  | | |  |  |  |  | |\  \  |  | \   \       
                 \___/    |_|  |_| |__|  |__|  |_| \__\ |__|  \__/        
                                                                              
                      - O R C A' S   B I G   F R I E N D -                    
                                      &                                       
                       - I N T E G R A L  F E E D E R -                       
                                                                              
 v1 FN, 2020, v2 2021, v3 2022-2024                                           
------------------------------------------------------------------------------


----------------------
SHARK INTEGRAL PACKAGE
----------------------

Number of atoms                             ...    205
Number of basis functions                   ...   3241
Number of shells                            ...   1385
Maximum angular momentum                    ...      3
Integral batch strategy                     ... SHARK/LIBINT Hybrid
RI-J (if used) integral strategy            ... SPLIT-RIJ (Revised 2003 algorithm where possible)
Printlevel                                  ...      1
Contraction scheme used                     ... SEGMENTED contraction
Prescreening option                         ... SCHWARTZ
   Thresh                                   ... 2.500e-11
   Tcut                                     ... 2.500e-12
   Tpresel                                  ... 2.500e-12 
Coulomb Range Separation                    ... NOT USED
Exchange Range Separation                   ... NOT USED
Multipole approximations                    ... NOT USED
Finite Nucleus Model                        ... NOT USED
CABS basis                                  ... NOT available
Auxiliary Coulomb fitting basis             ... AVAILABLE
   # of basis functions in Aux-J            ...   5269
   # of shells in Aux-J                     ...   1827
   Maximum angular momentum in Aux-J        ...      4
Auxiliary J/K fitting basis                 ... NOT available
Auxiliary Correlation fitting basis         ... NOT available
Auxiliary 'external' fitting basis          ... NOT available

Checking pre-screening integrals            ... done (  0.0 sec) Dimension = 1385
   => SHARK Basis and OBASIS are compatible. Storing Pre-screening
Shell pair information
Shell pair cut-off parameter TPreSel        ...   2.5e-12
Total number of shell pairs                 ...    959805
Shell pairs after pre-screening             ...    258267
Total number of primitive shell pairs       ...   2830831
Primitive shell pairs kept                  ...    460600
          la=0 lb=0:  82778 shell pairs
          la=1 lb=0:  82411 shell pairs
          la=1 lb=1:  20755 shell pairs
          la=2 lb=0:  30515 shell pairs
          la=2 lb=1:  15203 shell pairs
          la=2 lb=2:   2755 shell pairs
          la=3 lb=0:  14032 shell pairs
          la=3 lb=1:   6943 shell pairs
          la=3 lb=2:   2331 shell pairs
          la=3 lb=3:    544 shell pairs

Checking whether 4 symmetric matrices of dimension 3241 fit in memory
:Max Core in MB      =   4096.00
 MB in use           =    377.10
 MB left             =   3718.90
 MB needed           =    160.33
 Data fit in memory  = YES
Calculating RI/J V-Matrix + Cholesky decomp.... done (  1.8 sec)
Calculating Nuclear repulsion               ... done (  0.0 sec) ENN=  18343.411630888317 Eh

Diagonalization of the overlap matrix:
Smallest eigenvalue                        ... 3.189e-05
Time for diagonalization                   ...    1.916 sec
Threshold for overlap eigenvalues          ... 1.000e-07
Number of eigenvalues below threshold      ... 0
Time for construction of square roots      ...    1.628 sec
Total time needed                          ...    3.690 sec

-------------------
DFT GRID GENERATION
-------------------

General Integration Accuracy     IntAcc      ... 4.388
Radial Grid Type                 RadialGrid  ... OptM3 with GC (2021)
Angular Grid (max. ang.)         AngularGrid ... 4 (Lebedev-302)
Angular grid pruning method      GridPruning ... 4 (adaptive)
Weight generation scheme         WeightScheme... mBecke (2022)
Basis function cutoff            BFCut       ... 1.0000e-11
Integration weight cutoff        WCut        ... 1.0000e-14
Partially contracted basis set               ... off
Rotationally invariant grid construction     ... off
Angular grids for H and He will be reduced by one unit

Total number of grid points                  ...   870182
Total number of batches                      ...    13692
Average number of points per batch           ...       63
Average number of grid points per atom       ...     4245

--------------------
COSX GRID GENERATION
--------------------

GRIDX 1
-------
General Integration Accuracy     IntAcc      ... 3.816
Radial Grid Type                 RadialGrid  ... OptM3 with GC (2021)
Angular Grid (max. ang.)         AngularGrid ... 1 (Lebedev-50)
Angular grid pruning method      GridPruning ... 4 (adaptive)
Weight generation scheme         WeightScheme... mBecke (2022)
Basis function cutoff            BFCut       ... 1.0000e-11
Integration weight cutoff        WCut        ... 1.0000e-14
Partially contracted basis set               ... on
Rotationally invariant grid construction     ... off
Angular grids for H and He will be reduced by one unit

Total number of grid points                  ...   116029
Total number of batches                      ...     1005
Average number of points per batch           ...      115
Average number of grid points per atom       ...      566
UseSFitting                                  ... on

GRIDX 2
-------
General Integration Accuracy     IntAcc      ... 4.020
Radial Grid Type                 RadialGrid  ... OptM3 with GC (2021)
Angular Grid (max. ang.)         AngularGrid ... 2 (Lebedev-110)
Angular grid pruning method      GridPruning ... 4 (adaptive)
Weight generation scheme         WeightScheme... mBecke (2022)
Basis function cutoff            BFCut       ... 1.0000e-11
Integration weight cutoff        WCut        ... 1.0000e-14
Partially contracted basis set               ... on
Rotationally invariant grid construction     ... off
Angular grids for H and He will be reduced by one unit

Total number of grid points                  ...   225559
Total number of batches                      ...     1882
Average number of points per batch           ...      119
Average number of grid points per atom       ...     1100
UseSFitting                                  ... on

GRIDX 3
-------
General Integration Accuracy     IntAcc      ... 4.338
Radial Grid Type                 RadialGrid  ... OptM3 with GC (2021)
Angular Grid (max. ang.)         AngularGrid ... 3 (Lebedev-194)
Angular grid pruning method      GridPruning ... 4 (adaptive)
Weight generation scheme         WeightScheme... mBecke (2022)
Basis function cutoff            BFCut       ... 1.0000e-11
Integration weight cutoff        WCut        ... 1.0000e-14
Partially contracted basis set               ... on
Rotationally invariant grid construction     ... off
Angular grids for H and He will be reduced by one unit

Total number of grid points                  ...   488334
Total number of batches                      ...     3924
Average number of points per batch           ...      124
Average number of grid points per atom       ...     2382
UseSFitting                                  ... on
Grids setup in  21.7 sec
Initializing property integral containers    ... done (  0.0 sec)

SHARK setup successfully completed in  31.7 seconds

Maximum memory used throughout the entire STARTUP-calculation: 633.0 MB


           ************************************************************
           *        Program running with 24 parallel MPI-processes    *
           *              working on a common directory               *
           ************************************************************
Occupation numbers will be reassigned to an Aufbau configuration
             **** ENERGY FILE WAS UPDATED (i-PP_APP_clusters.en.tmp) ****
Finished Guess after  32.6 sec
Maximum memory used throughout the entire GUESS-calculation: 747.5 MB


           ************************************************************
           *        Program running with 24 parallel MPI-processes    *
           *              working on a common directory               *
           ************************************************************
----------------------------------------D-I-I-S--------------------------------------------
Iteration    Energy (Eh)           Delta-E    RMSDP     MaxDP     DIISErr   Damp  Time(sec)
-------------------------------------------------------------------------------------------
               ***  Starting incremental Fock matrix formation  ***
    1    -5636.4181133203419449     0.00e+00  2.31e-04  8.98e-03  4.57e-02  0.700  64.1
Warning: op=0 Small HOMO/LUMO gap (   0.019) - skipping pre-diagonalization
         Will do a full diagonalization
    2    -5636.4345586705749156    -1.64e-02  2.40e-04  7.98e-03  3.55e-02  0.700  39.4
                               ***Turning on AO-DIIS***
    3    -5636.4473363392316969    -1.28e-02  1.82e-04  6.18e-03  2.60e-02  0.700  33.7
    4    -5636.4563844682706986    -9.05e-03  4.24e-04  1.50e-02  1.86e-02  0.000  32.7
                              *** Initializing SOSCF ***
---------------------------------------S-O-S-C-F--------------------------------------
Iteration    Energy (Eh)           Delta-E    RMSDP     MaxDP     MaxGrad    Time(sec)
--------------------------------------------------------------------------------------
    5    -5636.4789779335624189    -2.26e-02  1.12e-04  8.80e-03  3.00e-03    41.9
               *** Restarting incremental Fock matrix formation ***
    6    -5636.4790607060785987    -8.28e-05  2.31e-04  1.77e-02  4.40e-03    67.7
    7    -5636.4773380774895486     1.72e-03  1.96e-04  1.62e-02  1.96e-02    40.3
    8    -5636.4792126453940000    -1.87e-03  1.74e-05  1.59e-03  2.57e-04    37.2
    9    -5636.4792031561628392     9.49e-06  9.53e-06  8.81e-04  2.73e-04    34.9
   10    -5636.4792196970774967    -1.65e-05  2.95e-06  2.35e-04  5.64e-05    27.6
   11    -5636.4792194207075227     2.76e-07  1.58e-06  1.04e-04  6.99e-05    26.4
   12    -5636.4792196576599963    -2.37e-07  1.24e-06  5.08e-05  1.26e-05    24.8
   13    -5636.4792197658389341    -1.08e-07  6.11e-07  2.50e-05  7.53e-06    25.8
   14    -5636.4792198407703836    -7.49e-08  9.71e-07  2.59e-05  2.57e-06    23.3
   15    -5636.4792196799899102     1.61e-07  5.18e-07  1.55e-05  2.24e-06    24.1
                  *** Gradient check signals convergence ***

               *****************************************************
               *                     SUCCESS                       *
               *           SCF CONVERGED AFTER  15 CYCLES          *
               *****************************************************

Recomputing exchange energy using gridx3       ... done (   91.923 sec)
Old exchange energy                            :   -124.219892855 Eh
New exchange energy                            :   -124.219950934 Eh
Exchange energy change after final integration :     -0.000058079 Eh
Total energy after final integration           :  -5636.479277890 Eh
             **** ENERGY FILE WAS UPDATED (i-PP_APP_clusters.en.tmp) ****

----------------
TOTAL SCF ENERGY
----------------

Total Energy       :      -5636.47927789022287 Eh         -153376.39866 eV

Components:
Nuclear Repulsion  :      18343.41163088831672 Eh          499149.60675 eV
Electronic Energy  :     -23979.89085069932480 Eh         -652526.00383 eV
One Electron Energy:     -44323.69599500664481 Eh        -1206109.08543 eV
Two Electron Energy:      20343.80514430732001 Eh          553583.08160 eV

Virial components:
Potential Energy   :     -11253.47786420440389 Eh         -306222.70075 eV
Kinetic Energy     :       5616.99858631418010 Eh          152846.30209 eV
Virial Ratio       :          2.00346816743439

DFT components:
N(Alpha)           :      346.999664439819 electrons
N(Beta)            :      346.999664439819 electrons
N(Total)           :      693.999328879639 electrons
E(X)               :     -493.179883642638 Eh       
E(C)               :      -28.195280660472 Eh       
E(XC)              :     -521.375164303110 Eh       

---------------
SCF CONVERGENCE
---------------

  Last Energy change         ...   -1.6078e-07  Tolerance :   1.0000e-08
  Last MAX-Density change    ...    1.5480e-05  Tolerance :   1.0000e-07
  Last RMS-Density change    ...    5.1801e-07  Tolerance :   5.0000e-09
  Last DIIS Error            ...    3.0037e-03  Tolerance :   5.0000e-07
  Last Orbital Gradient      ...    2.2362e-06  Tolerance :   1.0000e-05
  Last Orbital Rotation      ...    5.1561e-06  Tolerance :   1.0000e-05


Total SCF time: 0 days 0 hours 11 min 4 sec 
Finished LeanSCF after 665.6 sec

Maximum memory used throughout the entire LEANSCF-calculation: 883.0 MB


-------------------------------------------------------------------------------
                          DFT DISPERSION CORRECTION                            
                                                                               
                              DFTD3 V3.1  Rev 1                                
                          USING Becke-Johnson damping                          
-------------------------------------------------------------------------------
-------------------------   ----------------
Dispersion correction           -0.443928045
-------------------------   ----------------


-------------------------   --------------------
FINAL SINGLE POINT ENERGY     -5636.923205935445
-------------------------   --------------------



           ************************************************************
           *        Program running with 24 parallel MPI-processes    *
           *              working on a common directory               *
           ************************************************************
------------------------------------------------------------------------------
                         ORCA SCF GRADIENT CALCULATION
------------------------------------------------------------------------------

Nuc. rep. gradient        (SHARK) ... done (  0.0 sec)
HCore & Overlap gradient  (SHARK) ... done (  9.7 sec)
Split-RIJ-J gradient      (SHARK) ... done ( 21.5 sec)

ORCA finished by error termination in SCF gradient
Calling Command: mpirun -np 24  /opt/orca/orca_scfgrad_mpi i-PP_APP_clusters.scfgrad.inp i-PP_APP_clusters 
[file orca_tools/qcmsg.cpp, line 394]: 
  .... aborting the run

[file orca_tools/qcmsg.cpp, line 394]: 
  .... aborting the run

